Compound Name,Formula,Water Solubility (mg/L),Water Solubility (g/L)
"2-Cyclohexen-1-One, Oxime, (z)-",C6H9NO,12000,12
"2-Cyclohexen-1-One, Oxime, (e)-",C6H9NO,22000,22
"2-Cyclohexen-1-One, 2-Methyl-5-(1-Methylethenyl)",C10H14O,1300,1.3
2-Cyanoguanidine,C2H4N4,41300,41.3
2-Chlorovinyl Diethyl Phosphate,C6H12ClO4P,10000,10
2-Chlorotoluene,C7H7Cl,374,0.374
2-Chloropyridine,C5H4ClN,20000,20
2-Chloropropionic Acid,C3H5ClO2,1000000,1000
2-Chloropropane,C3H7Cl,3100,3.1
2-Chlorophenol,C6H5ClO,11300,11.3
2-Chloropentane,C5H11Cl,465,0.465
2-Chloronaphthalene,C10H7Cl,11.7,0.0117
2-Chloroiodobenzene,C6H4ClI,68.8,0.0688
2-Chloroethyl Vinyl Ether,C4H7ClO,429,0.429
2-Chloroethanol,C2H5ClO,1000000,1000
2-Chlorodiphenyl Ether,C12H9ClO,3.4,0.0034
2-Chlorodibenzo-p-Dioxin,C12H7ClO2,31.9,0.0319
2-Chlorobutane,C4H9Cl,1000,1
2-Chlorobiphenyl,C12H9Cl,4.83,0.00483
2-Chlorobenzoic Acid,C7H5ClO2,2090,2.09
2-Chloroaniline,C6H6ClN,8160,8.16
2-Chloroacetanilide,C8H8ClNO,6750,6.75
"2-Chloro-N,n-Diallylacetamide",C8H12ClNO,19700,19.7
2-Chloro-5-Nitrobenzoic Acid,C7H4ClNO4,3600,3.6
2-Chloro-4-Methyl-6-(dimethylamino)pyrimidine,C7H10ClN3,9400,9.4
"2-Chloro-4,6-Diamino-s-Triazine",C3H4ClN5,600,0.6
2-Chloro-2-Butenoic Acdi,C4H5ClO2,21000,21
2-Chloro-1-Nitrobenzene,C6H4ClNO2,441,0.441
"2-Cf3-4,5-Dichlorobenzimidazole",C8H3Cl2F3N2,69,0.069
"2-Butyne-1,4-Diol",C4H6O2,374000,374
2-Butoxyethanol Acetate,C8H16O3,9000,9
2-Butoxyethanol,C6H14O2,1000000,1000
"2-Butenoic Acid, 4-[(aminocarbonyl)amino]-4-Oxo-",C5H6N2O4,1900,1.9
"2-Butenoic Acid, 4-[(1-Carboxyethyl)amino]-4-Oxo",C7H9NO5,20000,20
"2-Butenoic Acid, 3-Chloro-, (z)-",C4H5ClO2,19000,19
"2-Butenoic Acid, 2-Chloro-, (z)-",C4H5ClO2,1000000,1000
"2-Butenoic Acid, 2-Chloro-, (e)-",C4H5ClO2,21200,21.2
"2-Butenoic Acid, 2,3-Dimethyl-",C6H10O2,49000,49
"2-Butenedioic Acid, 2-Propyl-, (e)-",C7H10O4,11100,11.1
"2-Butenedioic Acid, 2-Methyl-, Dimethyl Ester, (",C7H10O4,820,0.82
"2-Butenedioic Acid, 2-Methyl-, 4-Methyl Ester, (",C6H8O4,121000,121
"2-Butenedioic Acid, 2-Methyl-, 4-Ethyl Ester, (e",C7H10O4,19100,19.1
"2-Butenedioic Acid, 2-Methyl-, 1-Methyl Ester, (",C6H8O4,25500,25.5
"2-Butenedioic Acid, 2-Methyl-, 1-Ethyl Ester, (e",C7H10O4,14900,14.9
"2-Butenedioic Acid, 2-Methyl-, (e)-",C5H6O4,26300,26.3
"2-Butenedioic Acid, 2,3-Dihydroxy-, (e)-",C4H4O6,2960,2.96
"2-Butenediamide, (e)-",C4H6N2O2,350,0.35
"2-Butenamide, N-(4-Hydroxyphenyl)-",C10H11NO2,400,0.4
"2-Butenal, 2-Methyl-, (e)-",C5H8O,25000,25
2-Buten-1-Ol (cis),C4H8O,166000,166
2-Buten-1-Ol,C4H8O,1000000,1000
"2-Butanone, 3-Ethoxy-1,1-Dihydroxy-; Or Kethoxal",C6H12O4,100000,100
2-Butanone Oxime,C4H9NO,100000,100
2-Butanone,C4H8O,211000,211
"2-Butanol, 4,4-Diethoxy-",C8H18O3,200000,200
"2-Butanol, 3-Chloro-2-Methyl-",C5H11ClO,62500,62.5
"2-Butanol, 3-Chloro-",C4H9ClO,66600,66.6
"2-Butanol, 3,3-Dimethyl-, (.+-.)-",C6H14O,24300,24.3
"2-Butanol, 1,1,1-Trichloro-",C4H7Cl3O,20000,20
2-Butanol,C4H10O,181000,181
2-Butanethiol,C4H10S,1320,1.32
"2-Butanamine, 3,3-Dimethyl-",C6H15N,980000,980
2-Bromopyridine,C5H4BrN,20800,20.8
2-Bromopropane,C3H7Br,3180,3.18
2-Bromonaphthalene,C10H7Br,8.24,0.00824
2-Bromoethanol,C2H5BrO,1000000,1000
2-Bromochlorobenzene,C6H4BrCl,44.9,0.0449
2-Bromo-4-Nitrophenol,C6H4BrNO3,22000,22
2-Bromo-4-Methyl-5-Nitro-1h-Imidazole,C4H4BrN3O2,3330,3.33
2-Bromo-3-Methyl-Butanoic Acid,C5H9BrO2,14300,14.3
2-Bromo-2-Methylpropane,C4H9Br,600,0.6
2-Bromo-1-Chloropropane,C3H6BrCl,2240,2.24
"2-Bromo-1,1,1,2-Tetrafluoroethane",C2HBrF4,2270,2.27
"2-Bornanone, 3-(hydroxymethyl)-",C11H18O2,111000,111
"2-Bornanecarboxylic Acid, 2-Amino-",C11H19NO2,5000,5
"2-Benzothiazolesulfenamide, N,n-Dicyclohexyl-",C19H26N2S2,564,0.564
"2-Benzofurancarboxylic Acid, 3-Methoxy-",C10H8O4,250,0.25
"2-Azetidinecarboxylic Acid, 1-[(benzoyloxy)acety",C13H13NO5,1900,1.9
2-Azacyclo-Nonanone,C8H15NO,606000,606
2-Anilinoethanol,C8H11NO,46000,46
2-Aminopyridine,C5H6N2,890000,890
2-Aminophenol-4-Sulfonic Acid,C6H7NO4S,10000,10
2-Aminomethylfuran,C5H7NO,1000000,1000
2-Aminobenzoic Acid,C7H7NO2,3500,3.5
2-Aminoanthraquinone,C14H9NO2,16.3,0.0163
2-Aminoanthracene,C14H11N,1.3,0.0013
2-Amino-5-Nitrobenzoic Acid,C7H6N2O4,1000,1
2-Amino-5-Methylbenzenesulfonic Acid,C7H9NO3S,32000,32
2-Amino-4-Nitrophenol,C6H6N2O3,925,0.925
"2-Amino-4,7(3h,8h)-Pteridinedione",C6H5N5O2,5,0.005
"2-Amino-4,6-Dinitrophenol",C6H5N3O5,1400,1.4
"2-Amino-4,6-Dimethylpyrimidine",C6H9N3,40000,40
"2-Amino-3,5-Dibromo-n-Cyclohexyl-n-Methylbenzene",C14H20Br2N2,4000,4
2-Amino-2-Methylpropanediol,C4H11NO2,1000000,1000
2-Amino-2-Methyl-1-Propanol,C4H11NO,1000000,1000
2-Amino-1-Phenyl-Propan-1-Ol,C9H13NO,20000,20
2-Amino-1-Naphthalenesulfonic Acid,C10H9NO3S,4100,4.1
2-Amino-1-Butanol,C4H11NO,1000000,1000
2-Acetylthiophene,C6H6OS,14000,14
2-Acetoxy-Propionic Acid Hexyl Ester,C11H20O4,30200,30.2
2-Acetoxy-Propionic Acid Butyl Ester,C9H16O4,33200,33.2
"2-<(z)-2,4-Dinitro-Phenylhydrazono>-Propionic Ac",C9H8N4O6,25000,25
2-(thiocyanatemethylthio)benzothiazole,C9H6N2S3,40,0.04
2-(p-Chlorophenoxy)propionic Acid,C9H9ClO3,1470,1.47
2-(methylamino)ethanol,C3H9NO,1000000,1000
2-(methoxymethyl)-5-No2 Furan,C6H7NO4,11000,11
2-(diethylamino)-Ethanol,C6H15NO,1000000,1000
2-(bis(1-Methylethyl)amino)ethanol,C8H19NO,12000,12
2-(acetyloxy)-4-Bromo-Benzoic Acid,C9H7BrO4,667,0.667
"3h-Pyrazol-3-One, 4,4'-Methylenebis[1,2-Dihydro-",C23H24N4O2,431,0.431
"3h-Pyrazol-3-One, 1,2-Dihydro-5-Methyl-2-Phenyl-",C17H16N2O,10000,10
"3h-Pyrazol-3-One, 1,2-Dihydro-5-Methyl-1,2-Diphe",C16H14N2O,200,0.2
"3h-Pyrazol-3-One, 1,2-Dihydro-1,5-Dimethyl-4-(1-",C14H18N2O,2400,2.4
"3h-Purin-6-Amine, 1-Oxide",C5H5N5O,800,0.8
"3h-Naphtho[2,1-B]pyran-3-One, 1-Methyl-",C14H10O2,2890,2.89
"3h-Naphtho[2,1-B]pyran-1-Acetic Acid, 3-Oxo-",C15H10O4,170,0.17
"3h-1,5-Benzodiazepine, 2,4-Dimethyl-",C11H12N2,7400,7.4
"3h-1,2,4-Triazol-3-One, 5-Amino-1,2-Dihydro-2-Ph",C8H8N4O,600,0.6
3-i-Pr-5-Mephenyl-n-Me Carbamate,C12H17NO2,92,0.092
3-Trifluoromethylaniline,C7H6F3N,5460,5.46
3-Trifluoromethyl-4-Nitrophenol,C7H4F3NO3,5000,5
3-Quinolinol,C9H7NO,588,0.588
"3-Pyrrolidinecarboxylic Acid, 2,2,5,5-Tetramethy",C9H17NO2,500000,500
"3-Pyridinesulfonamide, 6-Hydroxy-",C5H6N2O3S,2500,2.5
"3-Pyridinesulfonamide, 6-Amino-",C5H7N3O2S,10500,10.5
3-Pyridinemethanol,C6H7NO,1000000,1000
"3-Pyridinecarboxylic Acid, Pentyl Ester",C11H15NO2,810,0.81
"3-Pyridinecarboxylic Acid, Octyl Ester",C14H21NO2,190,0.19
"3-Pyridinecarboxylic Acid, Octadecyl Ester",C24H41NO2,140,0.14
"3-Pyridinecarboxylic Acid, Nonyl Ester",C15H23NO2,200,0.2
"3-Pyridinecarboxylic Acid, Hydrazide",C6H7N3O,100000,100
"3-Pyridinecarboxylic Acid, Hexadecyl Ester",C22H37NO2,130,0.13
"3-Pyridinecarboxylic Acid, Heptyl Ester",C13H19NO2,400,0.4
"3-Pyridinecarboxylic Acid, Dodecyl Ester",C18H29NO2,150,0.15
"3-Pyridinecarboxylic Acid, Decyl Ester",C16H25NO2,170,0.17
"3-Pyridinecarboxamide, N-[(phenylamino)carbonyl]",C13H11N3O2,100,0.1
"3-Pyridinecarboxamide, N-Undecyl-",C17H28N2O,260,0.26
"3-Pyridinecarboxamide, N-Octyl-",C14H22N2O,230,0.23
"3-Pyridinecarboxamide, N-Octadecyl-",C24H42N2O,240,0.24
"3-Pyridinecarboxamide, N-Nonyl-",C15H24N2O,180,0.18
"3-Pyridinecarboxamide, N-Hexyl-",C12H18N2O,620,0.62
"3-Pyridinecarboxamide, N-Hexadecyl-",C22H38N2O,380,0.38
"3-Pyridinecarboxamide, N-Dodecyl-",C18H30N2O,180,0.18
"3-Pyridinecarboxamide, N-Decyl-",C16H26N2O,220,0.22
"3-Pyridinecarboxamide, N-Cyclohexyl-",C12H16N2O,980,0.98
"3-Pyridinecarboxamide, N-2-Pyridinyl-",C11H9N3O,210,0.21
3-Pyridinecarbothioic Acid,C6H5NOS,5800,5.8
"3-Pyridinecarbonitrile, 6-Chloro-1,2-Dihydro-4-h",C6H3ClN2O2,10000,10
"3-Pyridinecarbonitrile, 1,2,5,6-Tetrahydro-4,6,6",C9H12N2O,2900,2.9
"3-Pyridinamine, 6-[(4-Aminophenyl)sulfonyl]-",C11H11N3O2S,1230,1.23
"3-Pyrazoline-5-Thione, 1,3-Dimethyl-2-Phenyl-",C11H12N2S,4400,4.4
3-Phenylpropanol,C9H12O,5680,5.68
3-Phenyl-2-Propenal,C9H8O,1420,1.42
3-Penten-2-Ol,C5H10O,89200,89.2
3-Pentanone,C5H10O,45900,45.9
"3-Pentanol, 3-Methyl-, Carbamate",C7H15NO2,4000,4
3-Pentanol,C5H12O,51500,51.5
"3-P-Anisidino-Propane-1,2-Diol",C10H15NO3,100000,100
"3-Octyloxy-Propane-1,2-Diol",C11H24O3,2450,2.45
3-Octanone,C8H16O,2600,2.6
3-Nonanol,C9H20O,315,0.315
3-Nitrotoluene,C7H7NO2,450,0.45
3-Nitrophthalic Acid,C8H5NO6,20100,20.1
3-Nitrophenol,C6H5NO3,13300,13.3
3-Nitrofluoranthene,C16H9NO2,195,0.195
3-Nitroaniline,C6H6N2O2,1200,1.2
3-Methylthiophene,C5H6S,400,0.4
3-Methylsulfolene,C5H8O2S,78.5,0.0785
3-Methylsalicylic Acid,C8H8O3,11600,11.6
3-Methylpyridine,C6H7N,1000000,1000
3-Methylpentane,C6H14,17.9,0.0179
3-Methylpentan-2-One,C6H12O,20900,20.9
3-Methylindole,C9H9N,498,0.498
3-Methylhexane,C7H16,4.95,0.00495
3-Methylheptane,C8H18,79.2,0.0792
"3-Methylene-7-Methyl-1,6-Octadiene (myrcene)",C10H16,4,0.004
3-Methylcyclohexanone,C7H12O,1500,1.5
3-Methylcholanthrene,C21H16,2900,2.9
3-Methylacetanilide,C9H11NO,1210,1.21
3-Methyl-n-Oxidepyridine,C6H7NO,1000000,1000
3-Methyl-4-Nitrophenol,C7H7NO3,1190,1.19
3-Methyl-4-Chlorophenol,C7H7ClO,3830,3.83
3-Methyl-3-Pentanol,C6H14O,42600,42.6
3-Methyl-3-Hexanol,C7H16O,11900,11.9
3-Methyl-3-Heptanol,C8H18O,3250,3.25
3-Methyl-2-Pentanol,C6H14O,19400,19.4
3-Methyl-2-Nitrophenol,C7H7NO3,3510,3.51
3-Methyl-2-Heptanol,C8H18O,1140,1.14
3-Methyl-2-Butanone,C5H10O,57300,57.3
3-Methyl-2-Butanol,C5H12O,56000,56
"3-Methyl-2,4,6-Trinitrophenol",C7H5N3O7,2200,2.2
3-Methyl-1-Pentanol,C6H14O,4300,4.3
3-Methyl-1-Butene,C5H10,130,0.13
3-Methyl-1-Butanal,C5H10O,14000,14
3-Methyl Uric Acid,C6H6N4O3,54,0.054
3-Methoxybutyl Acetate,C7H14O3,4600,4.6
3-Me-4'-No2-Diphenyl Ether,C13H11NO3,5,0.005
3-Isoxazolecarboxylic Acid,C4H3NO3,1000000,1000
3-Isothiocyanato-1-Propene,C4H5NS,2000,2
"3-Isopentyloxy-Propane-1,2-Diol",C8H18O3,10000,10
3-Iodopropionic Acid,C3H5IO2,74300,74.3
3-Iodobenzoic Acid,C7H5IO2,133,0.133
3-Indolebutyric Acid,C12H13NO2,250,0.25
3-Hydroxypyridine,C5H5NO,33300,33.3
3-Hydroxycamphor,C10H16O2,20000,20
3-Hydroxybenzaldehyde,C7H6O2,7190,7.19
3-Hydroxy-Aspartic Acid,C4H7NO5,22200,22.2
3-Hydroxy-5-Methylisoxazole,C4H5NO2,85000,85
"3-Hydroxy-4-Oxo-4h-Pyran-2,6-Dicarboxylic Acid",C7H4O7,8400,8.4
"3-Hydroxy-2,2-Dimethylpropanal",C5H10O2,48000,48
3-Hexyne,C6H10,559,0.559
3-Hexyn-2-Ol,C6H10O,38000,38
3-Hexylheptamethyltrisiloxane,C13H34O2Si3,110,0.11
3-Hexanone,C6H12O,14700,14.7
3-Hexanol,C6H14O,16100,16.1
3-Heptanone,C7H14O,4300,4.3
"3-Heptanol, 5-Methyl-",C8H18O,1800,1.8
"3-Heptanol, 4-Methyl- (van8ci9ci)",C8H18O,1420,1.42
"3-Heptanol, 2-Methyl-",C8H18O,2010,2.01
3-Heptanol,C7H16O,4000,4
"3-Furanol, Tetrahydro-",C4H8O2,1000000,1000
"3-Furancarboxylic Acid, Tetrahydro-3-Methyl-2-Ox",C6H8O4,1000000,1000
"3-Furancarboxylic Acid, Tetrahydro-2,2-Dimethyl-",C7H10O4,9000,9
"3-Furancarboxylic Acid, 2-Methyl-5-(1,2,3,4-Tetr",C10H14O7,13000,13
3-Ethylpyridine,C7H9N,370000,370
3-Ethyl-5-Methylphenol,C9H12O,2320,2.32
3-Ethyl-3-Pentanol,C7H16O,16800,16.8
3-Dichlorobenzene,C6H4Cl2,125,0.125
3-Cyanopyridine,C6H4N2,135000,135
3-Chloropropylene,C3H5Cl,3370,3.37
3-Chlorophenol,C6H5ClO,26000,26
3-Chloropentane,C5H11Cl,250,0.25
3-Chloroiodobenzene,C6H4ClI,67.2,0.0672
3-Chlorocrotonic Acid,C4H5ClO2,29900,29.9
3-Chlorobiphenyl,C12H9Cl,3.63,0.00363
3-Chloroaniline,C6H6ClN,5400,5.4
3-Chloro-Nitrobenzene,C6H4ClNO2,273,0.273
3-Chloro-Dimethyl Parathion,C8H9ClNO5PS,40,0.04
3-Chloro-2-Nitrobenzoic Acid,C7H4ClNO4,470,0.47
3-Chloro-2-Methylpropene,C4H7Cl,1400,1.4
3-Chloro-1-Propanol,C3H7ClO,250000,250
"3-Chloro-1,2-Propanediol",C3H7ClO2,1000000,1000
"3-Buten-2-Ol, 2-Methyl-",C5H10O,1000000,1000
"3-Buten-2-Ol, 2,3-Dimethyl-",C6H12O,49500,49.5
3-Bromopropanol,C3H7BrO,142000,142
3-Bromo-2-Iodo-Acrylic Acid,C3H2BrIO2,17000,17
3-Bromo-1-Propene,C3H5Br,3830,3.83
3-Bromo-1-Nitrobenzene,C6H4BrNO2,10000,10
"3-Azabicyclo[3.2.1]octane-2,4-Dione, 3-Hydroxy-1",C10H15NO3,104000,104
3-Aminopyridine,C5H6N2,1000000,1000
3-Aminobenzoic Acid,C7H7NO2,5900,5.9
3-Aminobenzenesulfonic Acid,C6H7NO3S,12800,12.8
"3-Amino-2,5-Dichlorobenzoic Acid",C7H5Cl2NO2,700,0.7
"3-Acetyl-4,5-Dihydro-2(3h)-Furanone",C6H8O3,200000,200
3-(chloromethyl)heptane,C8H17Cl,100,0.1
3'-Methylphthalanilic Acid,C15H13NO3,1000,1
3'-Adenylic Acid,C10H14N5O7P,500,0.5
"4h-Thieno[2,3-B]thiopyran-2-Sulfonamide, 5,6-Dih",C7H7NO3S3,70,0.07
"4h-Pyran-4-One, 3-Hydroxy-2-Methyl-",C6H6O3,10900,10.9
"4h-Pyran-3,5-Dicarboxylic Acid, 2,6-Dimethyl-4-o",C13H16O6,8000,8
"4h-Imidazol-4-One, 2-Amino-1-Ethyl-1,5-Dihydro-",C5H9N3O,87000,87
"4h-Cyclopent[f]oxacyclotridecin-4-One, 1,6,7,8,9",C16H24O4,60,0.06
"4h-3,1-Benzoxazin-4-One, 2-Phenyl",C14H9NO2,5.5,0.0055
"4h-1-Benzopyran-4-One, 5,6,7-Trimethoxy-2-Methyl",C13H14O5,6670,6.67
"4h-1-Benzopyran-4-One, 3-(3,4-Dihydroxyphenyl)-7",C21H20O11,100,0.1
"4h-1-Benzopyran-4-One, 2,3-Dimethyl-",C11H10O2,1500,1.5
"4h-1,3-Thiazine-4-Carboxylic Acid, 2-Amino-5,6-d",C5H8N2O2S,30000,30
"4h-1,3,5-Dithiazine, Dihydro-2,4,6-Trimethyl-,",C6H13NS2,7000,7
4-Vinylpyridine,C7H7N,29100,29.1
4-Vinylcyclohexene,C8H12,50,0.05
"4-Thiazolidinone, 5-[(3,4-Dihydroxyphenyl)methyl",C10H7NO3S2,115,0.115
"4-Thiazolidinone, 2-Thioxo-",C3H3NOS2,2250,2.25
4-Thiazolesulfonic Acid,C3H3NO3S2,378000,378
4-Thia-1-Azabicyclo[3.2.0]heptane-2-Carboxylic A,C17H20N2O5S,255,0.255
4-Sulfanilamidopyrimidine,C10H10N4O2S,3540,3.54
"4-Quinolinecarboxylic Acid, 1,2-Dihydro-6-Methox",C11H9NO4,170,0.17
4-Pyrimidone,C4H4N2O,370000,370
"4-Pyrimidinecarboxylic Acid, 1,6-Dihydro-6-Oxo-2",C11H8N2O3,1330,1.33
"4-Pyrimidinecarboxamide, 1,2,3,6-Tetrahydro-2,6-",C5H5N3O3,500,0.5
"4-Pyrimidinamine, 5-Ethyl-2,6-Dipropyl-",C12H21N3,636,0.636
"4-Pyrimidinamine, 2,6-Diethyl-5-Methyl-",C9H15N3,730,0.73
4-Pyridinemethanol,C6H7NO,1000000,1000
4-Pyridinemethaneamine,C6H8N2,1000000,1000
"4-Pyridinecarboxylic Acid, [(5-Nitro-2-Furanyl)m",C11H8N4O4,48,0.048
"4-Pyridinecarboxylic Acid, (1-Carboxyethylidene)",C9H9N3O3,100,0.1
"4-Pteridinol, 6,7-Diethyl-",C10H12N4O,2500,2.5
"4-Pteridinamine, N,n-Dimethyl-",C8H9N5,16700,16.7
4-Pteridinamine,C6H5N5,714,0.714
4-Propylphenol,C9H12O,1280,1.28
"4-Piperidinol, Benzoate (ester)",C12H15NO2,10000,10
"4-Piperidinol, 1-[(benzoyloxy)acetyl]-",C14H17NO4,11800,11.8
"4-Picoline, 2-Chloro-6-Methoxy-Alpha,alpha,alpha",C7H5Cl4NO,11.3,0.0113
4-Phenylcatechol,C12H10O2,1600,1.6
4-Phenyl-2-Nitrophenol,C12H9NO3,8.37,0.00837
4-Penten-1-Ol,C5H10O,57000,57
4-Oxo-Pent-2-Enoic Acid,C5H6O3,66700,66.7
"4-Oxo-4h-Pyran-2,6-Dicarboxylic Acid",C7H4O6,14300,14.3
"4-Oxo-1,2,3,4-Tetrahydro-naphthoic Acid",C11H10O3,1500,1.5
4-Nonylphenyl Diphenyl Phospate,C27H33O4P,77,0.077
4-Nonanol,C9H20O,374,0.374
4-Nitrophenol,C6H5NO3,15600,15.6
4-Nitrobenzaldehyde,C7H5NO3,2340,2.34
4-Nitroaniline,C6H6N2O2,728,0.728
4-Nitroacetanilide,C8H8N2O3,2200,2.2
4-Nitro-((4-(n-Dimethyl)aminophenyl)azo)benzene,C14H14N4O2,54000,54
4-Methylsalicylic Acid,C8H8O3,10100,10.1
4-Methylpyridine,C6H7N,1000000,1000
4-Methylphenylisothiocyanate,C8H7NS,2.84,0.00284
4-Methyloctane,C9H20,11.5,0.0115
4-Methylcyclohexanol,C7H14O,15000,15
4-Methylbenzenesulfonamide,C7H9NO2S,3160,3.16
4-Methylacetanilide,C9H11NO,1200,1.2
4-Methyl-n-Oxidepyridine,C6H7NO,1000000,1000
4-Methyl-Trans-Crotonic Acid Nitrile,C5H7NO,52600,52.6
4-Methyl-Cinnamic Acid,C10H10O2,540,0.54
4-Methyl-2-Pentyl Acetate,C8H16O2,1300,1.3
4-Methyl-2-Pentanone,C6H12O,19000,19
4-Methyl-2-Pentanol,C6H14O,16400,16.4
4-Methyl-2-Oxetanone,C4H6O2,15300,15.3
4-Methyl-2-Nitrophenol,C7H7NO3,633,0.633
"4-Methyl-2,6-Dichlorophenol",C7H6Cl2O,6730,6.73
4-Methyl-1-Pentene,C6H12,48,0.048
4-Methyl-1-Penten-3-Ol,C6H12O,30600,30.6
4-Methyl-1-Pentanol,C6H14O,7600,7.6
"4-Methyl-1,1'-Biphenyl",C13H12,4.05,0.00405
4-Methoxyaniline,C7H9NO,21000,21
4-Methoxy-4-Methyl-2-Pentanone,C7H14O2,280000,280
"4-Methoxy-3,3'-Dimethylbenzophenone",C16H16O2,2,0.002
4-Methoxy-2-Nitrophenol,C7H7NO4,244,0.244
"4-Isoxazolecarboxylic Acid, 3-Methyl-5-Phenyl-",C11H9NO3,133,0.133
4-Iodobenzoic Acid,C7H5IO2,27,0.027
4-Iodoantipyrine,C11H11IN2O,800,0.8
"4-Imidazolidinone, 3-Phenyl-2-Thioxo-",C9H8N2OS,110,0.11
4-Hydroxyquinoline,C9H7NO,4800,4.8
4-Hydroxypyridine,C5H5NO,1000000,1000
4-Hydroxypteridine,C6H4N4O,5000,5
4-Hydroxyisophthalic Acid,C8H6O5,300,0.3
4-Hydroxydiphenylmethane,C13H12O,73.2,0.0732
4-Hydroxybenzaldehyde,C7H6O2,8450,8.45
"4-Hydroxy-Butyraldehyde-<2,4-Dinitro-Phenylhydra",C10H12N4O5,400,0.4
4-Hydroxy-4-Methyl-2-Pentanone,C6H12O2,1000000,1000
4-Hydroxy-3-Methoxybenzoic Acid,C8H8O4,1500,1.5
4-Hydroxy-3-Methoxy-Benzylalkohol,C8H10O3,2000,2
4-Hydroxy-2-Methylquinoline,C10H9NO,10000,10
4-Hydroxy Methyl Benzoate,C8H8O3,2500,2.5
4-Hexylresorcinol,C12H18O2,500,0.5
"4-Heptanol, 4-Methyl-",C8H18O,3370,3.37
"4-Heptanol, 3-Methyl-",C8H18O,1880,1.88
"4-Heptanol, 2-Methyl-",C8H18O,1610,1.61
4-Heptanol,C7H16O,4700,4.7
4-Formyl-2-Nitrophenol,C7H5NO4,187,0.187
4-Fluoroaniline,C6H6FN,33000,33
4-Fluoro-2-Propyl-Phenol,C9H11FO,2000,2
4-Ethylpyridine,C7H9N,107000,107
4-Ethylmorpholine,C6H13NO,1000000,1000
4-Ethylamino-6-Isopropylamino-s-Triazin-2-Ol,C8H15N5O,5.9,0.0059
4-Ethylacetanilide,C10H13NO,1170,1.17
4-Dimethylaminopyridine,C7H10N2,76000,76
4-Dimethylamino-3'-Methylazobenzene,C15H17N3,40,0.04
4-Dimethylamino Benzoic Acid,C9H11NO2,66.1,0.0661
"4-Cycloocten-1-Amine, N,n-Dimethyl-",C10H19N,3850,3.85
4-Cyanopyridine,C6H4N2,40000,40
4-Chlorophenyl Phenyl Ether,C12H9ClO,3.3,0.0033
4-Chlorophenol,C6H5ClO,25500,25.5
4-Chloroiodobenzene,C6H4ClI,68.8,0.0688
4-Chloroguaiacol,C7H7ClO2,5000,5
4-Chlorobiphenyl,C12H9Cl,1.34,0.00134
4-Chlorobenzoic Acid,C7H5ClO2,72,0.072
4-Chloroazobenzene,C12H9ClN2,43,0.043
4-Chloroanisole,C7H7ClO,237,0.237
4-Chloroaniline-3-Sulfonic Acid,C6H6ClNO3S,11300,11.3
4-Chloroaniline-2-Sulfonic Acid,C6H6ClNO3S,3130,3.13
4-Chloroaniline,C6H6ClN,3900,3.9
4-Chloro-5-Methyl-2-Nitrophenol,C7H6ClNO3,7.64,0.00764
"4-Chloro-3,5-Dimethyl Phenol",C8H9ClO,250,0.25
4-Chloro-2-Nitrophenol,C6H4ClNO3,141,0.141
4-Chloro-2-Nitroaniline,C6H5ClN2O2,500,0.5
4-Chloro-1-Nitro-2(trifluoromethyl)benzene,C7H3ClF3NO2,100,0.1
4-Butoxybenzoic Acid 2-(diethylamino)ethyl Ester,C17H27NO3,38.1,0.0381
4-Bromoiodobenzene,C6H4BrI,7.79,0.00779
4-Bromobiphenyl,C12H9Br,65.3,0.0653
4-Bromo-Trans-Crotonic Acid,C4H5BrO2,30000,30
4-Bromo-1-Butene,C4H7Br,764,0.764
"4-Benzothiazolol, 2-Amino-",C7H6N2OS,2000,2
4-Benzothiazolol,C7H5NOS,880000,880
4-Aminopyridine,C5H6N2,112000,112
4-Aminobutyric Acid,C4H9NO2,1300000,1300
4-Aminobenzoic Acid,C7H7NO2,5390,5.39
4-Aminoacetophenone,C8H9NO,3350,3.35
4-Amino-4'-Chlorodiphenyl,C12H10ClN,4.68,0.00468
4-Amino-1-Naphthalenesulfonic Acid,C10H9NO3S,310,0.31
4-Acetylbiphenyl,C14H12O,96,0.096
4-(trifluoromethyl)chlorobenzene,C7H4ClF3,29,0.029
4-(sec-Butyl)-2-Nitrophenol,C10H13NO3,28.2,0.0282
4-(phenylazo)benzenesulfonic Acid,C12H10N2O3S,56000,56
"4-(n,n-Dimethylamino)azobenzene",C14H15N3,23,0.023
"5h-Thieno[3,2-B]thiopyran-2-Sulfonamide, 6,7-Dih",C7H7NO3S3,80,0.08
"5-Thiazolecarboxylic Acid, 2-[[(4-Aminophenyl)su",C10H9N3O4S2,400,0.4
"5-Tert-Butyl-2,4,6-Trinitroxylene",C12H15N3O6,49,0.049
5-Quinoxalinol,C8H6N2O,6580,6.58
"5-Quinoxalinamine, 6,7-Dimethoxy-",C10H11N3O2,4000,4
5-Quinolinol,C9H7NO,417,0.417
"5-Quinolinesulfonic Acid, 8-Hydroxy-7-Iodo-",C9H6INO4S,2000,2
5-Quinolinecarboxylic Acid,C10H7NO2,364,0.364
"5-Pyrimidinemethanol, .alpha.-(2-Chlorophenyl)-.",C17H12ClFN2O,26,0.026
"5-Pyrimidinecarboxylic Aicd, 1,2,3,4-Tetrahydro-",C7H8N2O3S,1600,1.6
"5-Pyrimidinecarboxylic Acid, 1,2,3,4-Tetrahydro-",C5H4N2O4,1800,1.8
"5-Pyrimidineacetic Acid, 4-Amino-1,2-Dihydro-2-o",C6H7N3O3,3370,3.37
"5-Pyrimidineacetic Acid, 1,2,3,4-Tetrahydro-6-Me",C7H8N2O4,900,0.9
"5-Pyrimidineacetic Acid, 1,2,3,4-Tetrahydro-2,4-",C6H6N2O4,4000,4
5-Phenylpentanoic Acid,C11H14O2,610,0.61
5-Oxo-3-Phenyl-Hexanoic Acid,C12H14O3,7380,7.38
"5-Norbornene-2,3-Dicarboxylic Acid, Dimethyl Est",C11H14O4,13000,13
5-Nonanone,C9H18O,363,0.363
5-Nonanol,C9H20O,461,0.461
5-Nitrosalicylic Acid,C7H5NO5,2000,2
5-Nitro-2-Toluidine,C7H8N2O2,10000,10
5-Nitro-2-Propoxyaniline,C9H12N2O3,136,0.136
5-Methyluracil,C5H6N2O2,3820,3.82
5-Methylsalicylic Acid,C8H8O3,21900,21.9
5-Methylcytosine,C5H7N3O,34500,34.5
5-Methylchrysene,C19H14,620,0.62
5-Methyl-Hex-3-Enoic Acid,C7H12O2,9100,9.1
5-Methyl-2-Nitrophenol,C7H7NO3,272,0.272
5-Methyl-2-Hexanone,C7H14O,5400,5.4
5-Methyl-2-Hexanol,C7H16O,4900,4.9