Compound Name,Formula,Water Solubility (mg/L),Water Solubility (g/L)
Sodium Salicylate,C7H5NaO3,125000,125
Sodium Selenite,Na2O3Se,898000,898
Sodium Succinate,C4H4Na2O4,200000,200
Sodium Sulfide,Na2S,186000,186
Sodium Tartrate,C4H4Na2O6,250000,250
Sodium Thiocyanate,CHNNaS,580000,580
Sodium Trichloroacetate,C2Cl3NaO2,1000000,1000
Solvent Red 1,C17H14N2O2,33000,33
Solvent Yellow 33,C18H11NO2,16.9,0.0169
Soman,C7H16FO2P,21000,21
Sorbic Acid,C6H8O2,1910,1.91
Sorbitol,C6H14O6,689000,689
Sparteine Sulfate,C15H28N2O4S,667000,667
Sparticide,C10H4Cl2FNO2,5.9,0.0059
"Spiro[benzofuran-2(3h),1'-[2]cyclhexene-3,4'-Dio",C30H33ClO15,66.9,0.0669
"Spiro[benzofuran-2(3h), 1'-[2]cyclohexene]-3,4'-",C18H19ClO6,3.67,0.00367
"Spiro[benzofuran-2(3h), 1'-[3]cyclohexene]-2',3-",C18H19ClO6,9.17,0.00917
"Spiro[benzofuran-2(3h), 1'-[3]cyclohexene]-3,4'-",C22H27ClO6,84.6,0.0846
Spirodiclofen,C21H24Cl2O4,19,0.019
"Spiro Isobenzofuran-1(3h),9'- 9h Xanthen -3-One,",C20H12O5,50,0.05
Spiromesifen,C23H30O4,13,0.013
Spironolactone,C24H32O4S,22,0.022
Ssf-109 Fungicide,C15H18ClN3O,125,0.125
Ssf-126,C16H16N2O3,128,0.128
"Stannane, (lauroyloxy)tributyl-",C24H50O2Sn,1.2,0.0012
Stearic Acid,C18H36O2,500,0.5
Stilbene,C14H12,29.2,0.0292
Stilbene (trans),C14H12,29,0.029
Stirofos,C10H9Cl4O4P,11,0.011
"S-Triazine, 2-(allylamino)-4-Amino-",C6H9N5,15000,15
"S-Trithiane, 1,3-Dioxide",C3H6O2S3,17000,17
Strontium Acetate,C4H6O4Sr,287000,287
Strontium Carbonate,CO3Sr,10,0.01
Strontium Oxalate,C2O4Sr,50,0.05
Strychinidin-10-One Arsenate,C21H25AsN2O6,45300,45.3
"Strychnidin-10-One, 19-Oxide",C21H22N2O3,18600,18.6
Strychnine Hydriodide,C21H23IN2O2,2870,2.87
Styrene,C8H8,300,0.3
Styrene Oxide,C8H8O,3000,3
Suberic Acid,C8H14O4,5900,5.9
"Succinamic Acid, 3-Amino-2-Hydroxy-",C4H8N2O4,10500,10.5
"Succinamic Acid, N,n'-Dipropyl-, Ethyl Ester",C12H23NO3,18400,18.4
Succinamide,C4H8N2O2,3300,3.3
"Succinanilic Acid, 3-Methyl-",C11H13NO3,12000,12
-Succinic Acid,C8H12O4,800,0.8
"Succinic Acid, 2,3-Dibromo-2-Methyl-, Erythro-(.",C5H6Br2O4,570000,570
"Succinic Acid, 2-Allyl-3-Methyl-, Erythro-",C8H12O4,15000,15
"Succinic Acid, 2-Ethyl-3-Phenyl-",C12H14O4,1050,1.05
Succinimide,C4H5NO2,196000,196
Succinonitrile,C4H4N2,127000,127
Succinylcholine Chloride,C14H30Cl2N2O4,500000,500
Succinyl Peroxide,C8H10O8,33300,33.3
Sucrose Octaacetate,C28H38O19,910,0.91
Sudan Black B,C29H24N6,1000,1
Sufentanil,C22H30N2O2S,76,0.076
Sufentanil Citrate [usan],C22H30N2O2S,46000,46
Sulcofuron-Sodium,C19H11Cl4N2NaO5S,1240,1.24
Sulfachlorpyridazine,C10H9ClN4O2S,178,0.178
Sulfacytine,C12H14N4O3S,1750,1.75
Sulfadiazine,C10H10N4O2S,77,0.077
Sulfadimethoxine,C12H14N4O4S,52.9,0.0529
Sulfaethoxypyr,C12H14N4O3S,1100,1.1
Sulfallate,C8H14ClNS2,92,0.092
Sulfamerazine,C11H12N4O2S,202,0.202
Sulfameter,C11H12N4O3S,85.9,0.0859
Sulfamethazine,C12H14N4O2S,445,0.445
Sulfamethiazole,C9H10N4O2S2,1050,1.05
Sulfamethomidine,C12H14N4O3S,843,0.843
Sulfamethoxazole,C10H11N3O3S,379,0.379
Sulfamethoxypyridazine,C11H12N4O3S,147,0.147
Sulfamethylthiazole,C10H11N3O2S2,2000,2
Sulfamic Acid,H3NO3S,147000,147
"Sulfamic Acid, (1,2,3,4-Tetrahydro-2,4-Dioxo-5-p",C4H5N3O5S,3550,3.55
Sulfamonomethoxine,C11H12N4O3S,60.4,0.0604
Sulfamoxole,C11H13N3O3S,1680,1.68
Sulfanilacetamide,C8H10N2O3S,12500,12.5
Sulfanilamide,C6H8N2O2S,7500,7.5
"Sulfanilamide, N1-(1,4-Dihydro-1,4-Dioxo-2-Napht",C16H12N2O4S,45,0.045
"Sulfanilamide, N1-(4-Amino-2-Pyrimidinyl)-",C10H11N5O2S,1860,1.86
"Sulfanilamide, N1-(4-Ethyl-2-Pyrimidinyl)-",C12H14N4O2S,172,0.172
"Sulfanilamide, N1-(4-Isobutyl-2-Pyrimidinyl)-",C14H18N4O2S,100,0.1
"Sulfanilamide, N1-(4-Pentyl-2-Pyrimidinyl)-",C15H20N4O2S,200,0.2
"Sulfanilamide, N1-(5-Chloro-2-Pyrimidinyl)-",C10H9ClN4O2S,18,0.018
"Sulfanilamide, N1-(5-Isobutyl-1,3,4-Thiadiazol-2",C12H16N4O2S2,47,0.047
"Sulfanilamide, N1-(6-Methyl-2-Pyridyl)-, N-Oxide",C12H13N3O3S,50,0.05
"Sulfanilamide, N1-Purin-6-Yl-",C11H10N6O2S,13,0.013
"Sulfanilic Acid, N-Carbamimidoylcarbamimidoyl-",C8H11N5O3S,2500,2.5
Sulfanilyl Guanadine,C7H10N4O2S,2200,2.2
Sulfanilylurea,C7H9N3O3S,1200,1.2
Sulfaperine,C11H12N4O2S,400,0.4
Sulfaphenazole,C15H14N4O2S,1500,1.5
Sulfapyrazine,C10H10N4O2S,50,0.05
Sulfapyridine,C11H11N3O2S,268,0.268
Sulfaquinoxaline,C14H12N4O2S,7.5,0.0075
Sulfasomizole,C10H11N3O2S2,22600,22.6
Sulfathiazole,C9H9N3O2S2,373,0.373
Sulfathiourea,C7H9N3O2S2,11000,11
Sulfatolamide,C7H9N3O2S2,7800,7.8
Sulfentrazone,C11H10Cl2F2N4O3S,780,0.78
"Sulfinylamide, N4-(6-Deoxy-l-Mannopyranosyl)-",C12H18N2O6S,100000,100
Sulfisomidine,C12H14N4O2S,1620,1.62
Sulfisoxazole,C11H13N3O3S,300,0.3
Sulfometuron Methyl,C15H16N4O5S,244,0.244
"Sulfone, 1-Bromoethyl Ethyl",C4H9BrO2S,69600,69.6
Sulfosulfuron,C16H20N6O7S2,17.6,0.0176
Sulfotepp,C8H20O5P2S2,30,0.03
Sulfur Dioxide,O2S,107000,107
Sulfur Hexafluoride,F6S,31,0.031
Sulfuric Acid,H2O4S,1000000,1000
Sulfuryl Fluoride,F2O2S,750,0.75
Sulindac,C20H17FO3S,3000,3
Sulisobenzone,C14H12O6S,250000,250
Sulprofos,C12H19O2PS3,31,0.031
Szi-121,C14H7ClF2N4,23,0.023
Tabun,C5H11N2O2P,98000,98
Tartaric Acid,C4H6O6,582000,582
Tartrazine,C16H8N4Na4O9S2,200000,200
Tau-Fluvalinate,C26H22ClF3N2O3,1030,1.03
T-Butanol,C4H10O,1000000,1000
T-Butyl Acetate,C6H12O2,7140,7.14
T-Butylamine,C4H11N,1000000,1000
T-Butylbenzene,C10H14,29.5,0.0295
T-Butyl Chloride,C4H9Cl,2880,2.88
T-Butyl Methacrylate,C8H14O2,1000,1
T-Butyl-Peroxide,C8H18O2,100,0.1
T-Butylphenyl Diphenyl Phosphate,C22H23O4P,3.2,0.0032
Tebuconazole,C16H22ClN3O,36,0.036
Tebufenozide,C22H28N2O2,83,0.083
Tebufenpyrad,C18H24ClN3O,2.6,0.0026
Tebupirimfos,C13H23N2O3PS,5.5,0.0055
Tebutam,C15H23NO,790,0.79
Tebuthiuron,C9H16N4OS,2500,2.5
Tecloftalam,C14H5Cl6NO3,14,0.014
Teflubenzuron,C14H6Cl2F4N2O2,190,0.19
Tefluthrin,C17H14ClF7O2,200,0.2
Tembotrione,C17H16ClF3O6S,28300,28.3
Temephos,C16H20O6P2S3,27,0.027
Terbacil,C9H13ClN2O2,710,0.71
Terbufos,C9H21O2PS3,5.07,0.00507
Terbufos Sulfone,C9H21O4PS3,408,0.408
Terbufos Sulfoxide,C9H21O3PS3,1100,1.1
Terbumeton,C10H19N5O,130,0.13
Terbuthylazine,C9H16ClN5,9,0.009
Terbutryn,C10H19N5S,25,0.025
Terephthalic Acid,C8H6O4,17,0.017
Terfenadine,C32H41NO2,963,0.963
Terpin,C10H20O2,10000,10
Terpineol,C10H18O,1980,1.98
Terpin Hydrate (cis-Form),C10H22O3,4000,4
Terpinolene,C10H16,9.5,0.0095
Tert-Butyl (1-(4-Chloro)phenylsulfonyl) Cyclopro,C14H17ClO4S,24,0.024
Testosterone,C19H28O2,23.4,0.0234
Testosterone Propionate,C22H32O3,1.48,0.00148
Tetracene,C18H12,1510,1.51
"Tetrachloro-1,2-Benzenediol",C6H2Cl4O2,2.7,0.0027
Tetrachlorobiphenyl,C12H6Cl4,460,0.46
Tetrachlorodibenzo-p-Dioxins,C12H4Cl4O2,35000,35
Tetrachloroethanes,C4H4Cl8,2830,2.83
Tetrachloroethene,C2Cl4,206,0.206
Tetrachloroguaiacol,C7H4Cl4O2,4.2,0.0042
Tetrachlorophthalic Acid,C8H2Cl4O4,3600,3.6
Tetrachlorophthalide,C8H2Cl4O2,2.5,0.0025
Tetrachlorvinphos,C10H9Cl4O4P,11,0.011
Tetrachlorvinphos (e-Isomer),C10H9Cl4O4P,11,0.011
Tetraconazole,C13H11Cl2F4N3O,156,0.156
Tetracycline,C22H24N2O8,231,0.231
Tetradecane,C14H30,2200,2.2
Tetradecanoic Acid,C14H28O2,18.3,0.0183
Tetradecanol,C14H30O,31.2,0.0312
Tetradifon,C12H6Cl4O2S,780,0.78
Tetraethoxysilane,C8H20O4Si,1500,1.5
Tetraethyl Ammonium Bromide,C8H20BrN,1000000,1000
Tetraethyl Ammonium Chloride,C8H20ClN,1000000,1000
Tetraethyl Ammonium Iodide,C8H20IN,450000,450
Tetraethylene Glycol,C8H18O5,1000000,1000
Tetraethylenepentamine,C8H23N5,6540000,6540
Tetraethyl Lead,C8H20Pb,29,0.029
Tetraethyl Pyrophosphate,C8H20O7P2,1000000,1000
Tetraethylsilane,C8H20Si,32.5,0.0325
Tetraethyl Tin,C8H20Sn,444,0.444
Tetrafluoroethylene,C2F4,159,0.159
Tetrafluoromethane,CF4,18.8,0.0188
Tetrahydrobenzaldehyde,C21H30O3,5000,5
Tetrahydrofuran,C4H8O,1000000,1000
Tetrahydrofurfuryl Alcohol,C5H10O2,1000000,1000
Tetrahydropyran,C5H10O,80200,80.2
Tetrahydropyran-2-Methanol,C6H12O2,1000000,1000
Tetrakis(hydroxymethyl)phosphonium Chloride,C4H12ClO4P,400000,400
Tetrakis(trimethylsiloxy)silane,C12H36O4Si5,15100,15.1
Tetralin,C10H12,47,0.047
Tetramethyl Decynediol,C14H26O2,1200,1.2
Tetramethylenedisulfotetramine,C4H8N4O4S2,250,0.25
Tetramethyl Lead,C4H12Pb,15,0.015
Tetramethylsilane,C4H12Si,19.6,0.0196
Tetramethylurea,C5H12N2O,1000000,1000
Tetranitroaniline,C6H3N5O8,70,0.07
Tetranitromethane,CN4O8,900,0.9
Tetrapentylammonium Iodide,C20H44IN,7400,7.4
Tetraphenylarsonium Bromide,C24H20AsBr,16700,16.7
Tetrapropyl Ammonium Iodide,C12H28IN,186000,186
Tetrapropyl Thiopyrophosphorate,C12H28O5P2S2,30,0.03
Tetrasodium Pyrophosphate,Na4O7P2,81400,81.4
Tetrasul,C12H6Cl4S,300,0.3
Tetryl,C7H5N5O8,74,0.074
Thalidomide,C13H10N2O4,52.5,0.0525
Thallium (i) Chloride,ClTl,2900,2.9
Thebainone,C18H21NO3,4000,4
Thenylchlor,C16H18ClNO2S,11,0.011
Thenyldiamine,C14H19N3S,4440,4.44
Theobromine,C7H8N4O2,330,0.33
Theophylline,C7H8N4O2,7360,7.36
Thiabendazole,C10H7N3S,50,0.05
Thiacetazone,C10H12N4OS,88,0.088
Thiacloprid,C10H9ClN4S,185,0.185
Thiamethoxam,C8H10ClN5O3S,4100,4.1
Thiamine,C12H17ClN4OS,500000,500
Thiamine Disulfide,C24H34N8O4S2,568000,568
Thiamylal,C12H18N2O2S,49.4,0.0494
Thiazafluron,C6H7F3N4OS,2100,2.1
Thiazinamium Methylsulfate,C19H26N2O4S2,100000,100
Thiazolsulfone,C9H9N3O2S2,400,0.4
Thiazopyr,C16H17F5N2O2S,2.5,0.0025
Thidiazuron,C9H8N4OS,20,0.02
Thifluzamide,C13H6Br2F6N2O2S,1.6,0.0016
Thimerosal,C9H9HgNaO2S,500000,500
Thioacetamide,C2H5NS,163000,163
Thioanisole,C7H8S,506,0.506
Thiobencarb,C12H16ClNOS,28,0.028
"Thiocyanic Acid, 1,2,3-Propanetriyl Ester",C6H5N3S3,2500,2.5
"Thiocyanic Acid, 2-Oxopropyl Ester",C4H5NOS,70000,70
"Thiocyanic Acid, 4-Aminophenyl Ester",C7H6N2S,376,0.376
"Thiocyanic Acid, Ammonium Salt",CH4N2S,630000,630
Thiodicarb,C10H18N4O4S3,35,0.035
Thiofanox,C9H18N2O2S,5200,5.2
Thioimidodicarbonic Diamide,C2H5N3S2,2700,2.7
Thiolutin,C8H8N2O2S2,210,0.21
Thiometon,C6H15O2PS3,200,0.2
"Thiomorpholine, 4-Phenyl-",C10H13NS,10000,10
Thionazin,C8H13N2O3PS,1140,1.14
Thionine,C12H12ClN3S,2000,2
"Thioperoxydiphosphoric Acid, Tetramethyl Ester",C4H12O4P2S4,12.6,0.0126
Thiophanate-Methyl,C12H14N4O4S2,26.6,0.0266
Thiophene,C4H4S,3010,3.01
Thiophene-2-Carboxylic Acid,C5H4O2S,7500,7.5
Thiophene-3-Carboxylic Acid,C5H4O2S,4300,4.3
Thiophenol,C6H6S,835,0.835
Thiopropazate,C23H28ClN3O2S,8.92,0.00892
Thioridazine,C21H26N2S2,56,0.056
Thiosemicarbazide,CH5N3S,10000,10
"Thiosulfuric Acid (h2s2o3), S-[2-Amino-5-(dimeth",C8H12N2O3S2,3700,3.7
Thiotepa,C6H12N3PS,190000,190
Thiourea,CH4N2S,134000,134
"Thiourea, (1-Methylpropyl)-",C5H12N2S,9600,9.6
"Thiourea, 3-(nitrophenyl)-",C7H7N3O2S,7000,7
"Thiourea, Cyano-",C2H3N3S,100000,100
"Thiourea, N,n''-Methylenebis-",C3H8N4S2,3500,3.5
Thiram,C6H12N2S4,30,0.03
Thiuram Mt,C12H20N2S6,10,0.01
Threonine(l),C4H9NO3,97000,97
"Thymidine, 3'-Azido-3'-Deoxy-",C11H14N4O4,20100,20.1
Thymol,C10H14O,900,0.9
Thymol Blue,C27H30O5S,110,0.11
Thymolphthalein,C28H30O4,1000,1
Tifatol,C12H14N2S,150,0.15
Tiocarbazil,C16H25NOS,2.5,0.0025
Tirpate,C8H14N2O2S2,1000,1
Tolazamide,C14H21N3O3S,65.4,0.0654
Tolbutamide,C12H18N2O3S,109,0.109
Tolclofos-Methyl,C9H11Cl2O3PS,1.1,0.0011
Tolcyclamide,C14H20N2O3S,18.4,0.0184
Tolonium Chloride,C15H16ClN3S,38200,38.2
Toluene,C7H8,526,0.526
"Toluene-2,5-Diamine Sulfate",C7H12N2O4S,5030,5.03
Toluidine Green,C28H20N2Na2O10S2,30000,30
Tolyfluanide,C10H13Cl2FN2O2S2,90,0.09
Tonalid,C18H26O,1.25,0.00125
Tonalide,C18H26O,1.25,0.00125
Toxaphene (example Isomer Shown Below),C10H9Cl9,55,0.055
Tralkoxydim,C20H27NO3,5,0.005
Tralomethrin,C22H19Br4NO3,800,0.8
Tranexamic Acid,C8H15NO2,167000,167
Tranid,C10H12ClN3O2,2000,2
"Trans-2,5-Dimethylpiperazine",C6H14N2,350000,350
Trans-2-Butene,C4H8,511,0.511
Trans-2-Pentene,C5H10,203,0.203
Trans-Crotonaldehyde,C4H6O,150000,150
"Trans-Cyclohexane-1,2-Dicarboxylic Acid",C8H12O4,2000,2
"Trans-Cyclohexane-1,4-Dicarboxylic Acid",C8H12O4,800,0.8
Transfluthrin,C15H12Cl2F4O2,570,0.57
Trans-Terpin,C10H20O2,1000,1
Tri-2-Butoxyethyl Phosphate,C18H39O7P,1100,1.1
Tri-2-Chloroethyl Phosphate,C6H12Cl3O4P,7940,7.94
"Tri(3,5-Xylenyl) Phosphate",C24H27O4P,89,0.089
Triacetin,C9H14O6,58000,58
Triadimefon,C14H16ClN3O2,71.5,0.0715
Triadimenol,C14H18ClN3O2,120,0.12
Triadimenol (diastereoisomer A),C14H18ClN3O2,62,0.062
Triadimenol (diastereoisomer B),C14H18ClN3O2,33,0.033
Triallate,C10H16Cl3NOS,4,0.004
Triallylamine,C9H15N,2500,2.5
Triamcinolone,C21H27FO6,80,0.08
Triamcinolone Acetonide,C24H31FO6,21,0.021
Triamcinolone Diacetate,C25H31FO8,35.5,0.0355
Triamcinolone Hexacetonide,C30H41FO7,4,0.004
Triasulfuron,C14H16ClN5O5S,32,0.032
Triazamate,C13H22N4O3S,433,0.433
Triazophos,C12H16N3O3PS,39,0.039
Triazoxide,C10H6ClN5O,34,0.034
Tribenuron-Methyl,C15H17N5O6S,50,0.05
Tribenzylamine Hydrochloride,C21H22ClN,6100,6.1
Tribromobenzene,C18H9Br9,40,0.04
Tribufos,C12H27OPS3,2.3,0.0023
Tributylchlorostannane,C12H27ClSn,17,0.017
Tributylphosphate,C12H27O4P,280,0.28
Tributylphosphine Oxide,C12H27OP,55700,55.7
Tributyl Tin Acetate,C14H30O2Sn,65,0.065
Tributyrin,C15H26O6,133,0.133
Tricaine,C9H11NO2,100000,100
Tricaproin,C21H38O6,45,0.045
Trichlorfon,C4H8Cl3O4P,120000,120
Trichlormethiazide,C8H8Cl3N3O4S2,800,0.8
Trichloroacetaldehyde,C2HCl3O,30000,30
Trichloroacetamide,C2H2Cl3NO,13000,13
Trichloroacetic Acid,C2HCl3O2,54600,54.6
Trichlorobenzenes,C12H6Cl6,30,0.03
Trichloroethane,C4H6Cl6,1100,1.1
Trichloroethene,C2HCl3,1280,1.28
Trichlorofluoromethane,CCl3F,1100,1.1
Trichlorohydroquinone,C6H3Cl3O2,6250,6.25
Trichloronaphthalenes,C10H5Cl3,650,0.65
Trichloronate,C10H12Cl3O2PS,59,0.059
Trichloronitromethane,CCl3NO2,1620,1.62
Trichloropropane,C9H15Cl9,1900,1.9
Trichlorourethan,C3H4Cl3NO2,10000,10
Trichothecin,C19H24O5,400,0.4
Triclopyr,C7H4Cl3NO3,440,0.44
Triclopyr Ester,C13H16Cl3NO4,1000000,1000
Tricresyl Phosphate,C21H21O4P,36,0.036
Tricyclazole,C9H7N3S,1600,1.6
"Tricyclo[2.2.1.02,6]heptane-1-Carboxylic Acid, 7",C10H14O2,190,0.19
Tridecanedioic Acid,C13H24O4,1500,1.5
Tridecanoic Acid,C13H26O2,33,0.033
"Tridecanoic Acid, 2,4-Dioxo-",C13H22O4,200,0.2
Tridihexethyl Iodide,C21H36INO,11000,11
Trietazine,C9H16ClN5,20,0.02
Triethanolamine,C6H15NO3,1000000,1000
Triethylamine,C6H15N,68600,68.6
"Triethylamine, Hydrobromide",C6H16BrN,1000000,1000
Triethylamine Hydrochloride,C6H16ClN,1000000,1000
Triethylchlorolead,C6H15ClPb,11200,11.2
Triethyl Citrate,C12H20O7,65000,65
Triethylene Glycol,C6H14O4,1000000,1000
Triethylene Glycol Bis(2-Ethylbutyrate),C18H34O6,200,0.2
Triethylene Glycol Butyl Ether,C10H22O4,1000000,1000
Triethylene Glycol Di(2-Ethylhexoate),C22H42O6,1.53,0.00153
Triethylene Glycol Dibenzoate,C20H22O6,30.4,0.0304
Triethyleneglycol Dimethacrylate,C14H22O6,3600,3.6
"Triethylene Glycol, Dinitrate",C6H12N2O8,6600,6.6
Triethylenetetraamine,C6H18N4,4770000,4770
Triethyl Phosphate,C6H15O4P,500000,500
Trifenmorph,C23H23NO,200,0.2
Trifloxystrobin,C20H19F3N2O4,61,0.061
Triflumizole,C15H15ClF3N3O,12500,12.5
Triflumuron,C15H10ClF3N2O3,250,0.25
Trifluoroacetic Acid,C2HF3O2,1000000,1000
Trifluoromethane,CHF3,4090,4.09
Trifluorperazine,C21H24F3N3S,12.2,0.0122
Trifluralin,C13H16F3N3O4,18.4,0.0184
Triflusulfuron-Methyl,C17H19F3N6O6S,260,0.26
Triforine,C10H14Cl6N4O2,30,0.03
Triglycine,C6H11N3O4,58500,58.5
Triisopropanolamine,C9H21NO3,1000000,1000
Trimellitic Acid,C9H6O6,21000,21
Trimethadione,C6H9NO3,50000,50
Trimethoprim,C14H18N4O3,400,0.4
Trimethoxyethoxyvinylsilane,C11H24O6Si,71000,71
Trimethylamine,C3H9N,890000,890
Trimethyleneoxide,C3H6O,1000000,1000
"Trimethyl Hydrazine, Monohydrochloride",C3H11ClN2,20,0.02
Trimethyl Lead Chloride,C3H9ClPb,96900,96.9
Trimethylolethane Trinitrate,C5H9N3O9,516,0.516
Trimethylolpropane Trimethacrylate,C18H26O6,13,0.013
Trimethyl Phosphate,C3H9O4P,500000,500
Trimethylsilanol,C3H10OSi,35000,35
Tri N-Butylamine,C12H27N,142,0.142
Tri-n-Butyl Citrate,C18H32O7,80,0.08
Tri-n-Butyltin Fluoride,C12H27FSn,6,0.006
Trinexapac,C11H12O5,1300,1.3
Trinexapac-Ethyl,C13H16O5,2.8,0.0028
Tri(n-Octyl)amine,C24H51N,500,0.5
Trioctonoin,C27H50O6,40,0.04
Trional,C8H18O4S2,5000,5
Tri-p-Cresyl Phosphate,C21H21O4P,740,0.74
Tripelennamine,C16H21N3,587,0.587
Triphenylcarbinol,C19H16O,1430,1.43
Triphenylene,C18H12,411,0.411
Triphenylphosphate,C18H15O4P,1.9,0.0019
Triphenyltin Chloride,C18H15ClSn,1,0.001
Triphenyltin Fluoride,C18H15FSn,1.2,0.0012
Triphenyltin Hydroxide,C18H16OSn,40,0.04
Tripropionin,C12H20O6,3070,3.07
Tripropylamine,C9H21N,748,0.748
Tripropylene Glycol Methyl Ether,C10H22O4,1000000,1000
Tripropyl Phosphate,C9H21O4P,6450,6.45
"Tris(1,3-Dichloroisopropyl) Phosphate",C9H15Cl6O4P,7,0.007
"Tris(1,3-Dichloropropyl) Phosphate",C9H15Cl6O4P,100,0.1
"Tris(2,3-Dibromopropyl) Phosphate",C9H15Br6O4P,8,0.008
Tris(2-Ethylhexyl) Phosphate,C24H51O4P,60,0.06
Tris(2-Ethylhexyl) Trimellitate,C33H54O6,3060,3.06
Tris(beta-Chloroethyl)amine,C6H12Cl3N,160,0.16
Tri-Sec-Butanolamine,C12H27NO3,70000,70
"Trisiloxane, 1,1,1,3,5,5,5-Heptamethyl-",C7H22O2Si3,200,0.2
Tris(trimethylsiloxy)phenylsilane,C15H32O3Si4,6620,6.62
Tritac,C10H11Cl3O2,73,0.073
Triticonazole,C17H20ClN3O,9.3,0.0093
Trixylyl Phosphate,C24H27O4P,89,0.089
Tropacocaine,C15H19NO2,1700,1.7
Tropic Acid,C9H10O3,19500,19.5
Tropolone,C7H6O2,40900,40.9
Trovafloxacin,C20H15F3N4O3,12.3,0.0123
Tryptazan,C10H11N3O2,8000,8
Tryptophan,C11H12N2O2,13600,13.6
"Tryptophan, 5-Hydroxy-",C11H12N2O3,10000,10
Tubercidin,C11H16N4O4,3000,3
Tutin,C15H18O6,19000,19
Tylosin,C46H77NO17,5,0.005
Tyrosine,C9H11NO3,479,0.479
"Tyrosine, 3,5-Dichloro-",C9H9Cl2NO3,40000,40
"Tyrosine, 3-Hydroxy-",C9H11NO4,5000,5
Undecanedioic Acid,C11H20O4,140,0.14
Undecanoic Acid,C11H22O2,52.2,0.0522
"Undecanoic Acid, 11-[(6-Aminohexyl)amino]-",C17H36N2O2,1500,1.5
"Undecanoic Acid, 11-Bromo-",C11H21BrO2,53,0.053
"Undecanoic Acid, 11-Hydroxy-",C11H22O3,400,0.4
Undecylenic Acid,C11H20O2,73.7,0.0737
Uniconazole,C15H18ClN3O,8.41,0.00841
Uniconazole-p,C15H18ClN3O,8.41,0.00841
Uracil,C4H4N2O2,3600,3.6
Uranyl Acetate,C4H6O6U,100000,100
"Urea, (1,1-Diethylpropyl)-",C8H18N2O,2400,2.4
"Urea, (1,1-Dimethylethyl)-",C5H12N2O,21600,21.6
"Urea, (1,1-Dimethylpropyl)-",C6H14N2O,12600,12.6
"Urea, 1-Ethyl-1-o-Tolyl-",C10H14N2O,110000,110
"Urea, 1h-Purin-6-Yl-",C6H6N6O,303,0.303
"Urea, 1-Methyl-1-o-Tolyl-",C9H12N2O,64900,64.9
"Urea, 1-Methyl-1-p-Tolyl-",C9H12N2O,62000,62
"Urea, (2,2,2-Trichloro-1-Hydroxyethyl)-",C3H5Cl3N2O2,40000,40
"Urea, (2,3-Dihydro-1,5-Dimethyl-3-Oxo-2-Phenyl-1",C12H14N4O2,7400,7.4
"Urea, (2-Methylphenyl)-",C8H10N2O,2280,2.28
"Urea, (3-Acetylphenyl)-",C9H10N2O2,2380,2.38
"Urea, (4,5-Diamino-2,5-Dihydro-2-Oxo-1h-Imidazol",C4H8N6O2,2500,2.5
"Urea, [(4-Amino-2-Methyl-5-Pyrimidinyl)methyl]-",C7H11N5O,1000,1
"Urea, (4-Methoxyphenyl)-",C8H10N2O2,4260,4.26
"Urea, Chloro-",CH3ClN2O,200000,200
Urea Hydrogen Peroxide,CH8N2O3,286000,286
"Urea, Methyl-",C2H6N2O,1000000,1000
"Urea, N-(2,3-Dihydro-1,5-Dimethyl-3-Oxo-2-Phenyl",C18H18N4O2,1600,1.6
"Urea, N-Butyl-N'-(2,3-Dihydro-1,5-Dimethyl-3-Oxo",C16H22N4O2,7100,7.1
"Urea, N-Butyl-n-Phenyl",C11H16N2O,9700,9.7
"Urea, N,n'-Bis(2,2,2-Trinitroethyl)-",C5H6N8O13,800,0.8
"Urea, N,n'-Bis(4-Acetylphenyl)-",C17H16N2O3,41,0.041
"Urea, N,n''-Ethylidenebis-",C4H10N4O2,37400,37.4
"Urea, N,n''-Methylenebis-",C3H8N4O2,29400,29.4
Urea Phosphate (1:1),CH7N2O5P,414000,414
"Urea, Sulfanilylcarbamimidoyl-",C8H11N5O3S,200,0.2
"Urea, Tetraethyl-",C9H20N2O,40000,40
Uric Acid,C5H6N4O3,60,0.06
"Uric Acid, 7-(hydroxymethyl)-",C6H6N4O4,2500,2.5
"Uridine, 2'-Deoxy-5-Iodo-",C9H11IN2O5,2000,2
Urothion,C11H11N5O3S2,100,0.1
Ursodeoxycholic Acid,C24H40O4,20,0.02
"Valeric Acid, 4-(benzamido)-",C12H15NO3,4500,4.5
"Valeric Acid, 5-(benzenesulfonyl-Methyl-Amino)-",C12H17NO4S,7500,7.5
Validamycin,C20H35NO13,1000000,1000
Valine,C5H11NO2,58500,58.5
Valproic Acid,C8H16O2,2000,2
Vamidothion,C8H18NO4PS2,1000000,1000
Vanillin,C8H8O3,11000,11
Vel 3510,C12H22N4O3S,4100,4.1
Venlafaxine Hydrochloride [usan],C17H28ClNO2,572000,572
Vernolate,C10H21NOS,90,0.09
Vibramycin,C22H24N2O8,630,0.63
Vicine,C10H16N4O7,10000,10
Vinclozolin,C12H9Cl2NO3,2.6,0.0026
Vinyl Acetate,C4H6O2,20000,20
Vinylchloride,C2H3Cl,8800,8.8
Vinyltoluene,C27H30,89,0.089
Vitamin B 12,C63H89CoN14O14P,12500,12.5
Vitamin D2,C28H44O,50,0.05
Warfarin,C19H16O4,17,0.017
Xanthine,C5H4N4O2,69,0.069
"Xanthine, 8-Chloro-1,3,7-Tris(chloromethyl)-",C8H6Cl4N4O2,10000,10
Xanthopterin,C6H5N5O2,25,0.025
Xanthoxyletin,C15H14O4,40,0.04
Xipamide,C15H15ClN2O4S,58,0.058
Xylenes (isomer Mixture),C8H10,106,0.106
Xylenol Blue,C23H22O5S,1000,1
Xylidine,C40H55N5,1110,1.11