Compound Name,Formula,Water Solubility (mg/L),Water Solubility (g/L)
5-Methyl-2-(1-Methylethyl)-Cyclohexanone (tr*),C10H18O,688,0.688
"5-Isobenzofurancarbonitrile, 1,3-Dihydro-3-Oxo-",C9H5NO2,316,0.316
5-Indanol,C9H10O,6300,6.3
5-Hydroxytryptamine,C10H12N2O,20000,20
5-Hydroxyisophthalic Acid,C8H6O5,600,0.6
5-Fluorouracil,C4H3FN2O2,11100,11.1
5-Fluoro-2-Nitrophenol,C6H4FNO3,1400,1.4
"5-Ethyl-5-Methyl-2,4-Oxazolidinedione",C6H9NO3,150000,150
5-Ethyl-5-(p-Hydroxyphenyl)barbituric Acid,C12H12N2O4,1240,1.24
5-Ethyl-2-Methylpyridine,C8H11N,12000,12
5-Chlorovanillin,C8H7ClO3,249,0.249
5-Chlorosalicylic Acid,C7H5ClO3,10000,10
5-Chloro-2-Hydroxydiphenylmethane,C13H11ClO,149,0.149
"5-Chloro-2-(2,4-Dichlorophenoxy)phenol",C12H7Cl3O2,10,0.01
5-Butyl-5-Ethylbarbituric Acid,C10H16N2O3,4880,4.88
5-Bromouracil,C4H3BrN2O2,815,0.815
5-Aminopentanoic Acid,C5H11NO2,1000000,1000
5-Amino-1h-Tetrazole,CH3N5,12000,12
5-Allyl-5-Ethyl Barbituric Acid,C9H12N2O3,4020,4.02
5'-Adenylic Acid,C10H14N5O7P,10000,10
"6h-Purine-6-One, 1,7-Dihydro-, Oxime",C5H5N5O,602,0.602
"6h-Purin-6-One, 3,7-Dihydro-3-Methyl-",C6H6N4O,4760,4.76
"6h-Purin-6-One, 2-Chloro-1,7-Dihydro-7-Methyl-,",C6H7ClN6,14300,14.3
"6h-Purin-6-One, 1,9-Dihydro-9-Methyl-",C6H6N4O,2400,2.4
"6h-Purin-6-One, 1,7-Dihydro-2-Methyl-",C6H6N4O,10000,10
"6h-Purin-6-One, 1,7-Dihydro-2-(trifluoromethyl)-",C6H3F3N4O,1120,1.12
"6a-Beta-Aporphine-10,11-Diol",C17H17NO2,16600,16.6
6-Undecanone,C11H22O,50,0.05
6-Quinolinecarboxylic Acid,C10H7NO2,156000,156
6-Purinethiol Hydrate,C5H4N4S,68500,68.5
"6-Pteridinecarboxylic Acid, 1,2,3,4-Tetrahydro-7",C9H8N4O5,1200,1.2
6-Pteridinamine,C6H5N5,667,0.667
6-Phenylcaproic Acid,C12H16O2,480,0.48
"6-Oxabicyclo[3.2.1]oct-2-Ene-8-Carboxylic Acid,",C10H12O4,8330,8.33
6-Methylchrysene,C19H14,650,0.65
6-Methylbenzo(a)pyrene,C21H14,79800,79.8
6-Methyl-3-Isopropyl-2-Cyclohexen-1-One,C10H16O,2180,2.18
"6-Mercaptopurine-2,8-Diol",C5H4N4O2S,17,0.017
6-Hdroxyquinoline,C9H7NO,1000,1
"6-Formyl-2,3-Dimethoxybenzoic Acid",C10H10O5,2500,2.5
6-Chloropurine,C5H3ClN4,5000,5
6-Aminopenicillanic Acid,C8H12N2O3S,2430,2.43
6-Aminohexanoic Acid,C6H13NO2,505000,505
6-Aminochrysene,C18H13N,15.5,0.0155
"6,alpha,beta-Aporphine-10,11-Diol, Hydrochlor*",C17H18ClNO2,20000,20
"7h-Purine-7-Carboxylic Acid, 1,2,3,6-Tetrahydro-",C9H10N4O4,10000,10
"7h-Purine-7-Acetic Acid, 1,2,3,6-Tetrahydro-1,3-",C9H10N4O4,1030,1.03
"7h-Purine-7-Acetaldehyde, 1,2,3,6-Tetrahydro-1,3",C9H10N4O3,12000,12
"7h-Purine, 2,6-Dichloro-7-Methyl-",C6H4Cl2N4,14300,14.3
"7h-Dibenzo[c,h]phenothiazine",C20H13NS,396,0.396
"7h-Dibenzo(c,g)carbazole",C20H13N,630,0.63
7h-Benzo[c]phenothiazine,C16H11NS,667,0.667
7-Quinolinol,C9H7NO,455,0.455
7-Pteridinamine,C6H5N5,714,0.714
"7-Nitro-2,2-Dimethyl-2,3-Dihydrobenzofuran",C10H11NO3,120,0.12
7-Methyl-1-Octanol,C9H20O,461,0.461
"7-Methyl Quinazoline-2,4-Dione",C9H8N2O2,129,0.129
7-Ethylbenz(a)anthracene,C20H16,410,0.41
"8h-Purine-8-Thione, 1,7-Dihydro-",C5H4N4S,455,0.455
"8h-Purin-8-One, 1,7-Dihydro-",C5H4N4O,4170,4.17
"8-Quinolinol,5-Chloro-",C9H6ClNO,19,0.019
"8-Quinolinol, 5,7-Dibromo-",C9H5Br2NO,19.4,0.0194
"8-Quinolinol, 2-Methyl-5-Nitro-",C10H8N2O3,22.4,0.0224
"8-Quinolinol, 2,3-Dimethyl-",C11H11NO,8310,8.31
8-Quinolinol,C9H7NO,556,0.556
"8-Quinolinesulfonic Acid, 6-Bromo-",C9H6BrNO3S,797,0.797
"8-Quinolinecarboxylic Acid, 5-Nitro-",C10H6N2O4,149,0.149
8-Quinolinecarboxylic Acid,C10H7NO2,3120,3.12
"8-Quinazolinol, 4-Propyl-",C11H12N2O,226,0.226
"8-Quinazolinol, 4-Methyl-",C9H8N2O,400,0.4
8-Quinazolinol,C8H6N2O,1350,1.35
"8-Cinnolinol, 4-Methyl-",C9H8N2O,336,0.336
8-Cinnolinol,C8H6N2O,570,0.57
8-Chlorotheophylline,C7H7ClN4O2,6670,6.67
8-Aminonaphthalene-2-Sulfonic Acid,C10H9NO3S,4640,4.64
"9h-Purin-6-Amine, 9-[3,5-Bis-o-[(1,1-Dimethyleth",C27H49IN5O5SSi,104,0.104
"9h-Purin-6-Amine, 9-[2-o-Acetyl-3,5-Bis-o-[(1,1-",C24H43IN5O5SSi,93600,93.6
"9h-Purin-6-Amine, 9-(phenylmethyl)-",C12H11N5,440,0.44
"9h-Fluorene-9-Carboxylic Aicd, 2-Chloro-9-Hydrox",C14H9ClO3,21.8,0.0218
9h-Fluorene,C13H10,1.69,0.00169
"9-Tricosene, (z)-",C23H46,30,0.03
"9-Octadecenoic Acid, 12-(sulfooxy)-, (z)-",C18H34O6S,100000,100
"9-Octadecenoic Acid, 12-(sulfooxy)-",C18H34O6S,100000,100
9-Methylbenz(a)anthracene,C19H14,370,0.37
9-Methylanthracene,C15H12,26.1,0.0261
9-Methyl-9-Azabicyclo[3.3.1]nonan-3-One,C9H15NO,400000,400
"9-Anthracenecarboxylic Acid, 9,10-Dihydro-",C15H12O2,1000,1
"9-Acridinol, 9,10-Dihydro-10-Methyl-9-Phenyl-",C20H17NO,35.9,0.0359
"10h-Phenothiazine, 3-Bromo-",C12H8BrNS,21.5,0.0215
"10h-Phenothiazine, 2-Chloro-7-Methoxy-",C13H10ClNOS,2.77,0.00277
"10h-Phenothiazine, 2,7-Dichloro-",C12H7Cl2NS,1000000,1000
"10h-Phenothiazine, 10-Methyl-",C13H11NS,54.4,0.0544
10h-Phenothiazin-3-Ol,C12H9NOS,573,0.573
10-Methyl-Benz(a)anthracene,C19H14,550,0.55
11h-Benzo(b)fluorene,C17H12,4000,4
11h-Benzo(a)fluorene,C17H12,454,0.454
11-Aminoundecanoic Acid,C11H23NO2,1000,1
"1,1-Diphenylethylene",C14H12,6.6,0.0066
"1,1-Dimethylurea",C3H8N2O,50000,50
"1,1-Dimethylhydrazine",C2H8N2,1000000,1000
"1,1-Dimethoxyethane",C4H10O2,1000000,1000
"1,1-Difluoroethene",C2H2F2,165,0.165
"1,1-Difluoroethane",C2H4F2,3200,3.2
"1,1-Diethoxyethane",C6H14O2,44000,44
"1,1-Dichloropropane",C3H6Cl2,2700,2.7
"1,1-Dichlorofluoroethane",C2H3Cl2F,420,0.42
"1,1-Dichloroethene",C2H2Cl2,2420,2.42
"1,1-Dichloroethane",C2H4Cl2,5040,5.04
"1,1-Dichlorobutane",C4H8Cl2,502,0.502
"1,1-Dichloro-2,2-Bis(ethylphenyl)ethane",C18H20Cl2,10,0.01
"1,1-Dichloro-1-Nitropropane",C3H5Cl2NO2,5000,5
"1,1-Dichloro-1-Nitroethane",C2H3Cl2NO2,2500,2.5
"1,1-Dichloro-1,2,2,2-Tetrafluoroethane",C2Cl2F4,137,0.137
"1,1-Cyclopropanedicarboxylic Acid, 2-Methyl-",C6H8O4,1000000,1000
"1,1-Bis-Ethanesulfonylpropane",C7H16O4S2,7900,7.9
"1,1-Bis(p-Meo-Ph)-2-Nitropropane",C17H19NO4,8.6,0.0086
"1,1'-Sulfonylbis(2-Chloroethane)",C4H8Cl2O2S,6000,6
"1,1'-Sulfinylbis(2-Chloroethane)",C4H8Cl2OS,12000,12
"1,1'-Oxydi-2-Propanol",C6H14O3,10,0.01
"1,1'-Biphenyl, Octabromo-",C12H2Br8,35000,35
"1,1'-Biphenyl, 2,3,4,4',6-Pentachloro-",C12H5Cl5,3660,3.66
"1,1'-Biphenyl, 2,3,4',5-Tetrachloro-",C12H6Cl4,496,0.496
"1,1'-Biphenyl, 2,3,3',5',6-Pentachloro-",C12H5Cl5,3660,3.66
"1,1'-Biphenyl, 2,3,3',4-Tetrachloro-",C12H6Cl4,496,0.496
"1,1'-Biphenyl, 2,3,3',4,4',5,5'-Heptachloro-",C12H3Cl7,75300,75.3
"1,1'-Biphenyl, 2,3,3',4,4',5,5',6-Octachloro-",C12H2Cl8,858000,858
"1,1'-Biphenyl, 2,3,3',4,4',5',6-Heptachloro-",C12H3Cl7,31400,31.4
"1,1'-Biphenyl, 2,3,3',4',5,5',6-Heptachloro-",C12H3Cl7,31400,31.4
"1,1'-Biphenyl, 2,3,3',4',5',6-Hexachloro-",C12H4Cl6,1940,1.94
"1,1'-Biphenyl, 2,3',4,5',6-Pentachloro-",C12H5Cl5,3930,3.93
"1,1'-Biphenyl, 2,3',4',6-Tetrachloro-",C12H6Cl4,279,0.279
"1,1'-Biphenyl, 2,2',4,5',6-Pentachloro-",C12H5Cl5,111,0.111
"1,1'-Biphenyl, 2,2',4,4',5,6'-Hexachloro-",C12H4Cl6,2740,2.74
"1,1'-Biphenyl, 2,2',3,6'-Tetrachloro-",C12H6Cl4,14.6,0.0146
"1,1'-Biphenyl, 2,2',3,5-Tetrachloro-",C12H6Cl4,17.2,0.0172
"1,1'-Biphenyl, 2,2',3,5,6-Pentachloro-",C12H5Cl5,130,0.13
"1,1'-Biphenyl, 2,2',3,4,5',6-Hexachloro-",C12H4Cl6,3530,3.53
"1,1'-Biphenyl, 2,2',3,4,4',5,6,6'-Octachloro-",C12H2Cl8,14200,14.2
"1,1'-Biphenyl, 2,2',3,4,4',5,6'-Heptachloro-",C12H3Cl7,82600,82.6
"1,1'-Biphenyl, 2,2',3,4,4',5,5',6-Octachloro-",C12H2Cl8,13600,13.6
"1,1'-Biphenyl, 2,2',3,4',6'-Pentachloro-",C12H5Cl5,130,0.13
"1,1'-Biphenyl, 2,2',3,4',5-Pentachloro-",C12H5Cl5,4940,4.94
"1,1'-Biphenyl, 2,2',3,4',5,6'-Heptachloro-",C12H3Cl7,1280,1.28
"1,1'-Biphenyl, 2,2',3,3',4,6,6'-Heptachloro-",C12H3Cl7,2800,2.8
"1,1'-Biphenyl, 2,2',3,3',4,5,6,6'-Octachloro-",C12H2Cl8,34100,34.1
"1,1'-Biphenyl, 2,2',3,3',4,5',6-Heptachloro-",C12H3Cl7,82600,82.6
"1,1'-Biphenyl, 2,2',3,3',4,4',6,6'-Octachloro-",C12H2Cl8,34100,34.1
"1,1'-Biphenyl, 2,2',3,3',4,4',5,6,6'-Nonachloro-",C12HCl9,366000,366
"1,1'-Biphenyl -2,2'-Disulfonic Acid, 4,4'-Diamin",C14H16N2O6S2,2260,2.26
"1,1'-Biphenyl -2,2'-Dicarboxylic Acid",C14H10O4,100,0.1
1(1h)-Isobenzofuranone-3-I-Propyl,C11H12O2,976,0.976
12h-Benzo[c]phenothiazine,C16H11NS,31.7,0.0317
12-Methylbenz(a)anthracene,C19H14,660,0.66
12-Hydroxy-9-Octadecenoic Acid (cis),C18H34O3,3460,3.46
12-Butyl-Benz[a]anthracene,C22H20,8500,8.5
1-[(2-Aminoethyl)amino]-2-Propanol,C5H14N2O,1000000,1000
1-(2-Naphthalenyl)ethanone,C12H10O,272,0.272
"1,2-Propylene Glycol Diacetate",C7H12O4,100000,100
"1,2-Propanedione, 1-Phenyl-",C9H8O2,2600,2.6
"1,2-Propanediol-3-(2-Tolyloxy)",C10H14O3,11800,11.8
"1,2-Propanediol, Diformate",C5H8O4,86,0.086
"1,2-Propanediol, 3-(2-Methoxyphenoxy)-, 1-Carbam",C11H15NO5,7200,7.2
"1,2-Propanediol, 3-(2-Methoxyphenoxy)-",C10H14O4,50000,50
"1,2-Propanediol",C3H8O2,1000000,1000
"1,2-Pentanediol, 1-Phenyl-2-Propyl-",C14H22O2,500,0.5
"1,2-Naphthalenedione, 4-Amino-",C10H7NO2,25,0.025
"1,2-Naphthalenedione, 1-Oxime",C10H7NO2,200,0.2
"1,2-Hydrazinedicarboxamide",C2H6N4O2,238,0.238
"1,2-Hydrazinecarbothioamide",C2H6N4S2,2400,2.4
"1,2-Hexanediol, 2-Butyl-1phenyl-",C16H26O2,150,0.15
"1,2-Ethylene Dibromide",C2H2Br2,8910,8.91
"1,2-Ethanediamine, N-1-Naphthalenyl-",C12H14N2,2000,2
"1,2-Ethanediamine, N,n'-Dinitro-",C2H6N4O4,2300,2.3
"1,2-Ethanediamine, N,n'-Bis(phenylmethyl)-",C16H20N2,3930,3.93
"1,2-Dithiane-3,6-Dicarboxylic Acid, Trans-",C6H8O4S2,6230,6.23
"1,2-Dithiane-3,6-Dicarboxylic Acid, Cis-",C6H8O4S2,14100,14.1
"1,2-Dino2 4-Methyl Benzene",C7H6N2O4,179,0.179
"1,2-Dimethylhydrazine",C2H8N2,1000000,1000
"1,2-Dimethylcyclohexane (trans)",C8H16,5.2,0.0052
"1,2-Dimethylcyclohexane (cis)",C8H16,6,0.006
"1,2-Dimethylcyclohexane",C8H16,6,0.006
"1,2-Diiodoethene (trans)",C2H2I2,148,0.148
"1,2-Diiodoethene (cis)",C2H2I2,463,0.463
"1,2-Diiodobenzene",C6H4I2,19,0.019
"1,2-Dihydro-5-Methyl-4-Nitro-2-(4-Nitrophenyl)-3",C10H8N4O5,1230,1.23
"1,2-Difluorobenzene",C6H4F2,11400,11.4
"1,2-Diethoxyethane",C6H14O2,83700,83.7
"1,2-Dicyanobenzene",C8H4N2,395,0.395
"1,2-Dichlorotetrafluoroethane",C2Cl2F4,130,0.13
"1,2-Dichloropropene",C3H4Cl2,2700,2.7
"1,2-Dichloropropane",C3H6Cl2,2800,2.8
"1,2-Dichloronaphthalene",C10H6Cl2,13.6,0.0136
"1,2-Dichloroethylene",C2H2Cl2,3500,3.5
"1,2-Dichloroethene (trans)",C2H2Cl2,4520,4.52
"1,2-Dichloroethene (cis)",C2H2Cl2,6410,6.41
"1,2-Dichloroethane",C2H4Cl2,8600,8.6
"1,2-Dichlorobenzene",C6H4Cl2,156,0.156
"1,2-Dichloro-1,1-Difluoroethane",C2H2Cl2F2,850,0.85
"1,2-Dibutoxyethane",C10H22O2,2000,2
"1,2-Dibromotetrafluoroethane",C2Br2F4,3,0.003
"1,2-Dibromopropane",C3H6Br2,1430,1.43
"1,2-Dibromoethene",C2H2Br2,3370,3.37
"1,2-Dibromoethane",C2H4Br2,3910,3.91
"1,2-Dibromo-3-Chloropropane",C3H5Br2Cl,1230,1.23
"1,2-Dibromo-1-Chloroethane",C2H3Br2Cl,620,0.62
"1,2-Diaminoethane",C2H8N2,1000000,1000
"1,2-Cyclopentanedione, Dioxime",C5H8N2O2,1300,1.3
"1,2-Cyclohexanedione, 4-Tert-Pentyl-, Dioxime",C11H20N2O2,23,0.023
"1,2-Cyclohexanedione, 4-Methyl-, Dioxime",C7H12N2O2,3400,3.4
"1,2-Cyclohexanedione, 4-Isopropyl-, Dioxime",C9H16N2O2,750,0.75
"1,2-Cyclohexanedione, 4-(1,1,3,3-Tetramethylbuty",C14H26N2O2,10,0.01
"1,2-Cyclohexanedione, 3-Methyl-, Dioxime",C7H12N2O2,4000,4
"1,2-Cyclohexanediol, 1-Methyl-4-(1-Methylethenyl",C10H18O2,100000,100
"1,2-Cycloheptanedione, Dioxime",C7H12N2O2,5870,5.87
"1,2-Cyclodecanedione, Dioxime",C10H18N2O2,520,0.52
"1,2-Butyleneoxide",C4H8O,95500,95.5
"1,2-Butanediol, 2-Methyl-1-Phenyl-",C11H16O2,3400,3.4
"1,2-Butanediol",C4H10O2,1000000,1000
"1,2-Bis(2-Chloroethylsulfonyl)ethane",C6H12Cl2O4S2,10100,10.1
"1,2-Bis(2-Chloroethoxy)ethane",C6H12Cl2O2,18900,18.9
"1,2-Benzisothiazole, 2,3-Dihydro-2-Methyl-, 1,1-",C8H9NO2S,7100,7.1
"1,2-Benzisothiazol-3-Amine, N-Phenyl-, 1,1-Dioxi",C13H10N2O2S,50,0.05
"1,2-Benzisothiazol-3-Amine, 1,1-Dioxide",C7H6N2O2S,640,0.64
"1,2-Benzenediol, 4-(2-Propenyl)-",C9H10O2,25000,25
"1,2-Benzenediol, 4-(1-Propenyl)-",C9H10O2,6700,6.7
"1,2-Benzenediol, 4-(1,1-Dimethylethyl)-",C10H14O2,2000,2
"1,2-Benzenedimethanol",C8H10O2,158000,158
"1,2-Benzenedicarboxylic Acid, Mono(2-Hydroxyethy",C10H10O5,6920,6.92
"1,2-Benzenedicarboxylic Acid, 3-Nitro-, 2-Methyl",C9H7NO6,1850,1.85
"1,2-Benzenedicarboxylic Acid, 3-Chloro-",C8H5ClO4,21200,21.2
"1,2-Benzenedicarboxylic Acid, 3,4-Dimethoxy-, 2-",C11H12O6,2190,2.19
"1,2-Benzenedicarboxylic Acid, 1,2-Ethanediyl Est",C18H14O8,533,0.533
"1,2-Benzenedicarboxamide, N,n,n',n'-Tetramethyl-",C12H16N2O2,710000,710
"1,2-Benzenedicarboxamide",C8H8N2O2,600,0.6
"1,2-Benzenediamine",C6H8N2,40400,40.4
"1,2-Anthracenedicarboxylic Acid, 9,10-Dihydro-9,",C16H8O6,455,0.455
"1(2h)-Pyrimidinecarboxamide, N-Butyl-5-Fluoro-3,",C9H12FN3O3,820,0.82
"1(2h)-Pyrimidinecarboxamide, 5-Fluoro-3,4-Dihydr",C6H6FN3O3,620,0.62
"1(2h)-Pyrimidinecarboxamide, 5-Fluoro-3,4-Dichlo",C11H8FN3O3,6000,6
1(2h)-Isoquinolinone,C9H7NO,476,0.476
"13h-Dibenzo(a,i)carbazole",C20H21N,104,0.104
"1,3-Propanediol, Monobenzoate",C10H12O3,10000,10
"1,3-Propanediol, Diacetate",C7H12O4,100000,100
"1,3-Propanediol, 2-Nitro-2- (nitrooxy)methyl -,",C4H6N4O11,816,0.816
"1,3-Propanediol, 2-Nitro-1-Phenyl-, Diacetate (e",C13H15NO6,30,0.03
"1,3-Propanediol, 2-Bromo-2-Nitro-",C3H6BrNO4,200000,200
"1,3-Propanediol, 2-Amino-2-Ethyl-",C5H13NO2,1000000,1000
"1,3-Propanediol, 2-Amino-1-(4-Nitrophenyl)-, [r-",C9H12N2O4,2600,2.6
"1,3-Propanediol, 2-(hydroxymethyl)-2-Methyl-",C5H12O3,14000,14
"1,3-Propanediol, 2-(2-Propenyloxy)-",C6H12O3,400000,400
"1,3-Propanediol, 2,2-Bis(brme)-",C5H10Br2O2,38000,38
"1,3-Propanediol, 2,2-Bis (acetyloxy)methyl -, Di",C13H20O8,8220,8.22
"1,3-Propanediamine, N-Phenyl-",C9H14N2,3330,3.33
"1,3-Propanediamine, N,n-Dimethyl-",C5H14N2,1000000,1000
"1,3-Naphthalenedisulfonic Acid, 7-Hydroxy-8-(1-N",C20H14N2O7S2,210000,210
"1,3-Disiloxanediol, 1,1,3,3-Tetramethyl-",C4H14O3Si2,110000,110
"1,3-Diphenyl-1-Triazene",C12H11N3,500,0.5
"1,3-Dioxolane-4,4-Diacetic Acid, 5-Oxo-",C7H8O7,50000,50
"1,3-Dioxolane, 2-Methyl-",C4H8O2,667000,667
"1,3-Dioxolane, 2-Ethyl-",C5H10O2,200000,200
"1,3-Dioxolane, 2-(2-Methylpropyl)-",C7H14O2,55600,55.6
"1,3-Dioxolane, 2-(1-Methylethyl)-",C6H12O2,100000,100
"1,3-Dioxolane, 2,2-Dimethyl-",C5H10O2,333000,333
"1,3-Dioxolane, 2,2,4-Trimethyl-",C6H12O2,111000,111
"1,3-Dioxolan-2-One",C3H4O3,1000000,1000
"1,3-Dioxalane",C3H6O2,1000000,1000
"1,3-Dinitrobenzene",C6H4N2O4,533,0.533
"1,3-Dimethylol-5,5-Dimethylhydantoin",C7H12N2O4,773000,773
"1,3-Dimethylnapthalene",C12H12,8,0.008
"1,3-Dimethyl Uric Acid",C7H8N4O3,520,0.52
"1,3-Diiodobenzene",C6H4I2,8.88,0.00888
"1,3-Dichloropropene, (z)",C3H4Cl2,2180,2.18
"1,3-Dichloropropene (trans)",C3H4Cl2,2800,2.8
"1,3-Dichloropropene (isomer Mix)",C3H4Cl2,2800,2.8
"1,3-Dichloropropane",C3H6Cl2,2750,2.75
"1,3-Dichloro-5,5-Dimethylhydantoin",C5H6Cl2N2O2,500,0.5
"1,3-Dichloro-2-Propanol",C3H6Cl2O,99000,99
"1,3-Dibromopropane",C3H6Br2,1700,1.7
"1,3-Diacetylurea",C5H8N2O3,70000,70
"1,3-Cyclopentanedicarboxylic Acid, 1,4,4-Trimeth",C10H16O4,4600,4.6
"1,3-Cyclohexanedione, 5-Phenyl-",C12H12O2,580,0.58
"1,3-Cyclohexanedione, 2,2'-Methylenebis[5,5-Dime",C17H24O4,7500,7.5
"1,3-Cyclohexanedione, 2,2'-Ethylidenebis[5,5-Dim",C18H26O4,79,0.079
"1,3-Cyclohexadiene-1,4-Dicarboxylic Acid",C8H8O4,53,0.053
"1,3-Butanedione, 1-Phenyl-",C10H10O2,383,0.383
"1,3-Butanediol",C4H10O2,1000000,1000
"1,3-Butadiene",C4H6,735,0.735
"1,3-Bis(2-Chloroet)-1-Nitrosourea",C5H9Cl2N3O2,4000,4
"1,3-Benzodioxole-5-Methanol, 6-Nitro-",C8H7NO5,170,0.17
"1,3-Benzodioxole-5-Acetic Acid, .alpha.-Oxo-",C9H6O5,12500,12.5
"1,3-Benzodioxole-5-Acetaldehyde",C9H8O3,1800,1.8
"1,3-Benzodioxole-5,6-Dicarboxylic Acid",C9H6O6,6000,6
"1,3-Benzenesulfonic Acid, 2,5-Diamino",C6H8N2O6S2,229000,229
"1,3-Benzenedisulfonamide",C6H8N2O4S2,1600,1.6
"1,3-Benzenediol, 5-(methylthio)-",C7H8O2S,2500,2.5
"1,3-Benzenediol, 5-(butylthio)-",C10H14O2S,600,0.6
"1,3-Benzenediol, 4-Pentyl-",C11H16O2,2000,2
"1,3-Benzenediol, 4-Cyclohexyl-",C12H16O2,510,0.51
"1,3-Benzenediol, 4-(2-Phenylethyl)-",C14H14O2,410,0.41
"1,3-Benzenediol, 4,6-Dinitro-",C6H4N2O6,78.1,0.0781
"1,3-Benzenediol, 2-Methyl-",C7H8O2,263000,263
"1,3-Benzenedimethanol",C8H10O2,80800,80.8
"1,3-Benzenedicarboxylic Acid, 5-Chloro-",C8H5ClO4,290,0.29
"1,3-Benzenedicarboxylic Acid, 4-Sulfo-",C8H6O7S,1000000,1000
"1,3-Benzenedicarboxylic Acid, 4-Nitro-",C8H5NO6,9670,9.67
"1,3-Benzenedicarboxylic Acid, 4-Methoxy-",C9H8O5,150,0.15
"1,3-Benzenedicarboxylic Acid, 2-Nitro-",C8H5NO6,2160,2.16
"1,3-Benzenedicarboxylic Acid, 2-Methoxy-",C9H8O5,1000,1
"1,3-Benzenedicarboxylic Acid, 2-Hydroxy-5-Methyl",C9H8O5,1300,1.3
"1,3-Benzenedicarboxylic Acid, 2-Hydroxy- (9ci)",C8H6O5,26400,26.4
"1,3-Benzenedicarboxamide, N,n,n',n'-Tetramethyl-",C12H16N2O2,676000,676
"1,3-Benzenediamine",C6H8N2,238000,238
"1(3h)isobenzofuranone-3,3-Dimethyl",C10H10O2,2200,2.2
"1(3h)-Isobenzofuranone,3,3-Diethyl",C12H14O2,260,0.26
"1(3h)-Isobenzofuranone, 6-Nitro-",C8H5NO4,400,0.4
"1(3h)-Isobenzofuranone, 6-Iodo-",C8H5IO2,160,0.16
"1(3h)-Isobenzofuranone, 6-Chloro-",C8H5ClO2,556,0.556
"1(3h)-Isobenzofuranone, 6-Bromo-",C8H5BrO2,480,0.48
"1(3h)-Isobenzofuranone, 6-Amino-3-Methyl-",C9H9NO2,2650,2.65
"1(3h)-Isobenzofuranone, 6-Amino-",C8H7NO2,1360,1.36
"1(3h)-Isobenzofuranone, 3-Methyl-6-Nitro-",C9H7NO4,468,0.468
"1(3h)-Isobenzofuranone, 3-Ethyl-",C10H10O2,2900,2.9
"1(3h)-Isobenzofuranone, 3,3-Diphenyl-",C20H14O2,40,0.04
"1(3h)-Isobenzofuranone, 3,3-Dimethyl-6-Nitro-",C10H9NO4,184,0.184
"1(3h)-Isobenzofuranone, 3,3-Bis(6-Hydroxy[1,1'-B",C32H22O4,130,0.13
"14h-Dibenzo[a,j]phenothiazine",C20H13NS,3700,3.7
"1,4-Piperazinedicarboxylic Acid, Diethyl Ester",C10H18N2O4,43000,43
"1,4-Pentadiene",C5H8,558,0.558
"1,4-Naphthalenedione, 5-Hydroxy-2-Methyl-",C11H8O3,300,0.3
"1,4-Naphthalenedione, 2-(methylthio)-",C11H8O2S,7,0.007
"1,4-Dithiane",C4H8S2,3000,3
"1,4-Dioxane, 2,5-Dimethoxy-2,5-Dimethyl-",C8H16O4,10000,10
"1,4-Dioxane",C4H8O2,1000000,1000
"1,4-Dimethylnaphthalene",C12H12,11.4,0.0114
"1,4-Dimethylcyclohexane (trans)",C8H16,3.84,0.00384
"1,4-Dimethylcyclohexane",C8H16,3.84,0.00384
"1,4-Diiodobenzene",C6H4I2,1.4,0.0014
"1,4-Dihydroxy-9,10-Anthracenedione",C14H8O4,961,0.961
"1,4-Dichloronaphthalene",C10H6Cl2,86.5,0.0865
"1,4-Dichlorobutane",C4H8Cl2,15300,15.3
"1,4-Dichlorobenzene",C6H4Cl2,81.3,0.0813
"1,4-Dichloro-2-Butene(trans)",C4H6Cl2,850,0.85
"1,4-Dichloro-2-Butene(cis)",C4H6Cl2,580,0.58
"1,4-Dichloro-2-Butene",C4H6Cl2,580,0.58
"1,4-Dichloro-2,5-Dimethoxybenzene",C8H8Cl2O2,8,0.008
"1,4-Dibromobutane",C4H8Br2,350,0.35
"1,4-Dibromobenzene",C6H4Br2,20,0.02
"1,4-Diazabicyclo(2,2,2)octane (dabco)",C6H12N2,450000,450
"1,4-Cyclohexanediol, 1,4-Dimethyl-,",C8H16O2,35000,35
"1,4-Cyclohexanedimethanol",C8H16O2,920000,920
"1,4-Cyclohexadiene-1,2-Dicarboxylic Acid",C8H8O4,16800,16.8
"1,4-Cyclohexadiene",C6H8,700,0.7
"1,4-Butanediol",C4H10O2,1000000,1000
"1,4-Bis(methylamino)anthraquinone",C16H14N2O2,370,0.37
"1,4-Benzenedisulfonamide",C6H8N2O4S2,700,0.7
"1,4-Benzenedimethanol",C8H10O2,56800,56.8
"1,4-Benzenedicarboxylic Acid, 2-Methoxy-",C9H8O5,2000,2
"1,4-Benzenedicarboxylic Acid, 2-Bromo-",C8H5BrO4,1800,1.8
"1,4-Benzenedicarboxamide, N,n,n',n'-Tetramethyl-",C12H16N2O2,406000,406
"1,4-Benzenedicarboxaldehyde",C8H6O2,200,0.2
"1,4-Benzenedicarboperoxoic Acid",C8H6O6,55.6,0.0556
"1,4-Benzenediamine",C6H8N2,37000,37
"1,5-Pentanediol, Dipropanoate",C11H20O4,1270,1.27
"1,5-Naphthyridin-4(1h)-One",C8H6N2O,833,0.833
"1,5-Hexadiene",C6H10,169,0.169
"1,5-Dimethylnaphthalene",C12H12,2.74,0.00274
"1,5-Dihydroxynaphthalene",C10H8O2,165,0.165
"1,5-Dichloronaphthalene",C10H6Cl2,37.9,0.0379
"1,5-Diaminonaphthalene",C10H10N2,380,0.38
"1,5-Anthraquinonedisulfonic Acid",C14H8O8S2,666000,666
"1,6-Naphthyridin-8-Ol",C8H6N2O,3220,3.22
"1,6-Naphthalenedisulfonic Acid, 4-Amino-",C10H9NO6S2,6900,6.9
"1,6-Naphthalenedisulfonic Acid",C10H8O6S2,1000000,1000
"1,6-Heptadiene",C7H12,1650,1.65
"1,6-Dioxaspiro[4,4]nonane, 2,7-Dimethyl-",C9H16O2,55600,55.6
"1,6-Dioxaspiro[4,4]nonane, 2,7-Diethyl-",C11H20O2,2630,2.63
"1,6-Dioxaspiro[4,4]nonane, 2,2,7,7-Tetramethyl-",C11H20O2,2000,2
"1,6-Dioxaspiro[4,4]nonane",C7H12O2,100000,100
"1,6-Bis(trimethoxysilyl)hexane",C12H30O6Si2,52.6,0.0526
"1,6-Anthracenedisulfonic Acid, 9,10-Dihydro-9,10",C14H8O8S2,1000000,1000
17-a-Methyl Testosterone,C20H30O2,33.9,0.0339
17-Alpha-Hydroxyprogesterone,C21H30O3,6.48,0.00648
"1,7-Phenanthroline",C12H8N2,376,0.376