Compound Name,Formula,Water Solubility (mg/L),Water Solubility (g/L)
"1,7-Naphthyridin-8(7h)-One",C8H6N2O,10500,10.5
"1,7-Dimethyl Uric Acid",C7H8N4O3,710,0.71
"1,8-Nonadiyne",C9H12,125,0.125
"1,8-Naphthalenediamine",C10H10N2,850,0.85
"1,8-Dichloronaphthalene",C10H6Cl2,31.5,0.0315
"1,8-Cineole",C10H18O,3500,3.5
"1,8-Anthraquinonedisulfonic Acid",C14H8O8S2,6660000,6660
2-(1h)-Quinolinone,C9H7NO,1050,1.05
"2(1h)-Quinolinone, 4-Hydroxy-",C9H7NO2,26,0.026
"2(1h)-Pyrimidinone, 4-Amino-6-Methyl-",C5H7N3O,4000,4
"2(1h)-Pyrimidinone, 4-Amino-5-Iodo-",C4H4IN3O,950,0.95
"2(1h)-Pyrimidinone, 4-Amino-5-Ethyl-",C6H9N3O,13300,13.3
"2(1h)-Pyridinone, 5-Iodo-1-Methyl-",C6H6INO,230000,230
"2(1h)-Pyridinone, 5-Iodo-",C5H4INO,4000,4
"2(1h)-Pyridinone, 1-Methyl-",C6H7NO,1000000,1000
"2(1h)-Pteridinone, 4-Amino-",C6H5N5O,71.4,0.0714
"2(1h)-Pteridinone, 1-Methyl-",C7H6N4O,6900,6.9
2(1h)-Pteridinone,C6H4N4O,1670,1.67
2(1h)-Pteridinethione,C6H4N4S,385,0.385
"2(1h)-Naphthalenone, Octahydro-5,8-Dihydroxy-1-m",C11H18O3,100000,100
"2(1h)-Azecinone, Octahydro-",C9H17NO,13100,13.1
2-(2-Chlorophenoxy)propanoic Acid,C9H9ClO3,1200,1.2
2-(2-Aminoethylamino)ethanol,C4H12N2O,1000000,1000
"2,2-Dimethylpropane",C5H12,33.2,0.0332
"2,2-Dimethylpentane",C7H16,4.4,0.0044
"2,2-Dimethyloxirane",C4H8O,58000,58
"2,2-Dimethylhexane",C8H18,20,0.02
"2,2-Dimethylbutane",C6H14,21.2,0.0212
"2,2-Dimethyl-3-Pentanol",C7H16O,8200,8.2
"2,2-Dimethyl-1-Propanol",C5H12O,35000,35
"2,2-Dimethyl-1-Pentanol",C7H16O,4230,4.23
"2,2-Dimethyl-1-Butanol",C6H14O,7600,7.6
"2,2-Dimethyl Propanoic Acid",C5H10O2,21700,21.7
"2,2-Diethyl-1-Pentanol",C9H20O,547,0.547
"2,2-Diethyl-1,3-Propanediol",C7H16O2,200000,200
"2,2-Dibromo-2-Cyanoacetamide",C3H2Br2N2O,15000,15
"2,2-Bis(ethylsulfonyl)propane",C7H16O4S2,13800,13.8
"2,2-Bis(4-Hydroxy-3,5-Dibromophenyl)propane",C15H12Br4O2,17.1,0.0171
"2,2-Bipyridine",C10H8N2,5930,5.93
"2,2'-Thiobisethanol",C4H10O2S,1000000,1000
"2,2'-Dithiobisbenzothiazole",C14H8N2S4,10,0.01
"2,2'-Dichlorobiphenyl",C12H8Cl2,1.85,0.00185
"2,2'-Diamino-4,4'-Disulfanediyl-Di-Butyric Acid",C8H16N2O4S2,200,0.2
"2,2'-Biquinoline",C18H12N2,1.02,0.00102
"2,2'-Azobis(2-Methylpropionitrile)",C8H12N4,350,0.35
"2,3-Quinoxalinedione, 1,4-Dihydro-6-Methyl-",C9H8N2O2,160,0.16
"2,3-Pyridinedicarboxylic Acid, 4-Methyl-",C8H7NO4,8500,8.5
"2,3-Pentanedione",C5H8O2,66700,66.7
"2,3-Naphthalenediol",C10H8O2,293,0.293
"2,3-Dinitrotoluene",C7H6N2O4,161,0.161
"2,3-Dimethylpyridine",C7H9N,260000,260
"2,3-Dimethylphenol",C8H10O,4570,4.57
"2,3-Dimethylpentane",C7H16,5.25,0.00525
"2,3-Dimethylnaphthalene",C12H12,1.99,0.00199
"2,3-Dimethylbutane",C6H14,22.5,0.0225
"2,3-Dimethyl-3-Pentanol",C7H16O,16400,16.4
"2,3-Dimethyl-2-Pentanol",C7H16O,15700,15.7
"2,3-Dimethyl-2-Butanol",C6H14O,43500,43.5
"2,3-Dimethyl-1,3-Butadiene",C6H10,326,0.326
"2,3-Dihydro-1,2-Benzisothiazole-1,1-Dioxide",C7H7NO2S,5100,5.1
"2,3-Dichloropropene",C3H4Cl2,2150,2.15
"2,3-Dichlorophenoxyacetic Acid",C8H6Cl2O3,343,0.343
"2,3-Dichlorophenol",C6H4Cl2O,8220,8.22
"2,3-Dichloronitrobenzene",C6H3Cl2NO2,62.4,0.0624
"2,3-Dichloronaphthalene",C10H6Cl2,867,0.867
"2,3-Dichlorodibenzo-p-Dioxin",C12H6Cl2O2,149,0.149
"2,3-Dichlorobutane",C4H8Cl2,562,0.562
"2,3-Dichlorobiphenyl",C12H8Cl2,99.7,0.0997
"2,3-Dibromo-Acrylic Acid",C3H2Br2O2,49200,49.2
"2,3-Dibromo-1-Propanol",C3H6Br2O,52000,52
"2,3-Butanedione",C4H6O2,200000,200
"2,3-Butanediol (meso)",C4H10O2,1000000,1000
"2,3-Butanediol",C4H10O2,1000000,1000
"2,3'-Bipyridine",C10H8N2,40000,40
2(3h)-Thiophenone,C4H4OS,60000,60
"2(3h)-Thiazolone, 4-Methyl-",C4H5NOS,25200,25.2
"2(3h)-Pteridinone, 3-Methyl-",C7H6N4O,20000,20
"2(3h)-Furanone, 5-Methyl-",C5H6O2,50000,50
2(3h)-Benzoxazolethione,C7H5NOS,1000,1
"(2,4-Dimethylphenyl)phosphonic Acid",C8H11O3P,15000,15
24pyrimidinedione6methyl,C5H6N2O2,7000,7
"24nh2pyrimidine,5(35-Meo-4-Oetome)benzyl",C16H22N4O4,2650,2.65
"2,4-Pyridinedicarboxylic Acid",C7H5NO4,2490,2.49
"2,4-Pteridinediamine, 6,7-Diethyl-",C10H14N6,118,0.118
"2,4-Pteridinediamine",C6H6N6,333,0.333
"2,4-Pentanedione",C5H8O2,166000,166
"2,4-Pentanediol, 2-Methyl-4-(1-Naphthalenyl)-",C16H20O2,140,0.14
"2,4-Pentadienenitrile",C5H5N,15000,15
"2,4-Imidazolidinedione, 5-[(4-Methoxyphenyl)meth",C12H14N2O3,30000,30
"2,4-Imidazolidinedione, 5-Ethyl-5-Phenyl-",C11H12N2O2,1380,1.38
"2,4-Imidazolidinedione, 5-Butyl-, (?)-",C7H12N2O2,5000,5
"2,4-Imidazolidinedione, 5,5-Dimethyl-3-(phenylme",C12H14N2O2,3500,3.5
"2,4-Imidazolidinedione, 5,5-Dimethyl-",C5H8N2O2,100000,100
"2,4-Imidazolidinedione, 1,1'-Methylenebis[5-Ethy",C13H20N4O4,900,0.9
"2,4-Imidazolidinedione, 1,1'-Methylenebis[5,5-Di",C11H16N4O4,5000,5
"2,4-Hexadienedioic Acid, 3-Methyl-, 6-Methyl Est",C8H10O4,22700,22.7
"2,4-Hexadienedioic Acid, (e,e)-",C6H6O4,200,0.2
"2,4-Hexadienedioic Acid,",C6H6O4,200,0.2
"2,4-Dinitrotoluene",C7H6N2O4,200,0.2
"2,4-Dinitrophenol",C6H4N2O5,2790,2.79
"2,4-Dinitrochlorobenzene",C6H3ClN2O4,9.24,0.00924
"2,4-Dinitrobenzoic Acid",C7H4N2O6,18200,18.2
"2,4-Dinitroanisole",C7H6N2O5,155,0.155
"2,4-Dinitro-n-Phenylbenzenamine",C12H9N3O4,38,0.038
"2,4-Dimethylquinoline",C11H11N,1800,1.8
"2,4-Dimethylpyridine",C7H9N,350000,350
"2,4-Dimethylphenol",C8H10O,7870,7.87
"2,4-Dimethylpentane",C7H16,5.5,0.0055
"2,4-Dimethyl-3-Pentanone",C7H14O,5700,5.7
"2,4-Dimethyl-3-Pentanol",C7H16O,7000,7
"2,4-Dimethyl-2-Pentanol",C7H16O,13600,13.6
"2,4-Dimethyl-1-Pentanol",C7H16O,2910,2.91
"2,4-Dihydroxypyridine",C5H5NO2,6250,6.25
"2,4-Dihydroxybenzoic Acid",C7H6O4,5780,5.78
"2,4-Dihydroxyazobenzene",C12H10N2O2,200,0.2
"2,4-Dichlorophenoxyacetic Acid",C8H6Cl2O3,682,0.682
"2,4-Dichlorophenol",C6H4Cl2O,5520,5.52
"2,4-Dichlorobiphenyl",C12H8Cl2,1.15,0.00115
"2,4-Dichlorobenzoic Acid",C7H4Cl2O2,480,0.48
"2,4-Dichloroaniline",C6H5Cl2N,620,0.62
"2,4-Dichloro-6-Nitrophenol",C6H3Cl2NO3,17,0.017
"2,4-Dibromophenol",C6H4Br2O,1900,1.9
"2,4-Diamino-6-Propyl-s-Triazine",C6H11N5,18600,18.6
"2,4-Diamino-6-Isoprpyl-s-Triazine",C6H11N5,5660,5.66
"2,4-Di-t-Butylphenol",C14H22O,35,0.035
"2,4-Des",C8H8Cl2O5S,250000,250
"2,4-Deb",C15H12Cl2O3,48,0.048
"2,4-Db Sodium Salt",C10H9Cl2NaO3,200000,200
"2,4-Db",C10H10Cl2O3,46,0.046
"2,4-D, Sodium Salt",C8H5Cl2NaO3,335000,335
"2,4-D, Propyl Ester",C11H12Cl2O3,14.8,0.0148
"2,4-D, Octyl Ester",C16H22Cl2O3,317,0.317
"2,4-D, Methyl Ester",C9H8Cl2O3,258,0.258
"2,4-D, Isopropyl Ester",C11H12Cl2O3,37.3,0.0373
"2,4-D, Isooctyl Ester",C16H22Cl2O3,324,0.324
"2,4-D, Ethyl Ester",C10H10Cl2O3,111,0.111
"2,4-D, Dimethylamine Salt",C10H13Cl2NO3,750000,750
"2,4-D, Butyl Ester",C12H14Cl2O3,46,0.046
"2,4-D, Butoxyethyl Ester",C14H18Cl2O4,12,0.012
"2,4-Bis((3-Methoxypropyl)amino)-6-(methylthio)-s",C12H23N5O2S,100,0.1
"2,4'-Dichlorodiphenyl Ether",C12H8Cl2O,72.2,0.0722
"(2,5-Dioxoimidazolidin-4-Yl)acetic Acid",C5H6N2O4,11200,11.2
"2,5-Thiophenedicarboxylic Acid, Tetrahydro, (2s-",C6H8O4S,81700,81.7
"2,5-Tetrahydrofurandimethanol",C6H12O3,1000000,1000
"2,5-Selenophenedicarboxylic Acid, Tetrahydro-",C6H8O4Se,63600,63.6
"2,5-Pyrrolidinedione, 1-Pentyl-",C9H15NO2,13300,13.3
"2,5-Pyrrolidinedione, 1-Bromo-",C4H4BrNO2,14700,14.7
"2,5-Pyrrolidinedione, 1-(4-Ethoxyphenyl)-",C12H13NO3,759,0.759
"2,5-Pyrrolidinedicarboxylic Acid, 1-Methyl-, Cis",C7H11NO4,62500,62.5
"2,5-Pyrrolidinediacetic Acid, 1-Methyl-, Dimethy",C11H19NO4,154000,154
"2,5-Piperazinedione, 3-[(4-Hydroxyphenyl)methyl]",C11H12N2O3,20000,20
"2,5-Piperazinedione, 3-(1-Methylethyl)-",C7H12N2O2,20000,20
"2,5-Piperazinedione, 3,6-Bis(hydroxymethyl)-, Tr",C6H10N2O4,3400,3.4
"2,5-Piperazinedione, 3,6-Bis(hydroxymethyl)-, Ci",C6H10N2O4,54800,54.8
"2,5-Piperazinedione, 1,4-Bis(hydroxymethyl)-",C6H10N2O4,66700,66.7
"2,5-Piperazinedione",C4H6N2O2,16800,16.8
"2,5-Furandipropionic Acid, Tetrahydro-, Diethyl",C14H24O5,600,0.6
"2,5-Furandicarboxylic Acid",C6H4O5,1000,1
"2,5-Dinitrotoluene",C7H6N2O4,219,0.219
"2,5-Dinitrophenol",C6H4N2O5,385,0.385
"2,5-Dimethyltetrahydrofuran",C6H12O,118000,118
"2,5-Dimethylpyridine",C7H9N,270000,270
"2,5-Dimethylphenol",C8H10O,3540,3.54
"2,5-Dimethylaniline",C8H11N,5600,5.6
"2,5-Dimethyl-2,4-Hexadiene",C8H14,32,0.032
"2,5-Dihydroxybenzoic Acid",C7H6O4,5000,5
"2,5-Dihydroxybenzaldehyde",C7H6O3,13800,13.8
"2,5-Dichlorophenol",C6H4Cl2O,6190,6.19
"2,5-Dichloronitrobenzene",C6H3Cl2NO2,950,0.95
"2,5-Dichlorodiphenyl Ether",C12H8Cl2O,2.56,0.00256
"2,5-Dichlorobiphenyl",C12H8Cl2,1.12,0.00112
"2,5-Dichlorobenzoic Acid",C7H4Cl2O2,800,0.8
"2,5-Dibromobenzaldehyde",C7H4Br2O,41.8,0.0418
"2,5-Diaminotoluene",C7H10N2,100000,100
"2,5-Cyclohexadiene-1,4-Dione, 2,5-Dibromo-3,6-Di",C6H2Br2O4,1450,1.45
"2,5-Cyclohexadiene-1,4-Dione",C6H4O2,11100,11.1
"2(5h)-Furanone, 5-Methylene-",C5H4O2,10000,10
"2-[(6-Chloro-3-Pyridazinyl)thio]-N,n-Diethylacet",C10H14ClN3OS,5000,5
"2,6-Pyridinedicarboxylic Acid, 4-Hydroxy-",C7H5NO5,1500,1.5
"2,6-Piperidinedicarboxamide",C7H13N3O2,333000,333
"2,6-Octadien-1-Ol, 3,7-Dimethyl-, (z)-",C10H18O,531,0.531
"2,6-Naphthalenediol",C10H8O2,1000,1
"2,6-Lutidine",C7H9N,300000,300
"2,6-Dinitrotoluene",C7H6N2O4,204,0.204
"2,6-Dinitrophenol",C6H4N2O5,5160,5.16
"2,6-Dinitro-Biphenyl-3-Ol",C12H8N2O5,50,0.05
"2,6-Dimethylphenol",C8H10O,6050,6.05
"2,6-Dimethylnaphthalene",C12H12,2,0.002
"2,6-Dimethylaniline",C8H11N,8240,8.24
"2,6-Dimethyl-N-Nitrosomorpholine",C6H12N2O2,124000,124
"2,6-Dimethyl-5,6-Dihydro-2h-Pyran-3-Carboxylic A",C8H12O3,25000,25
"2,6-Dimethyl-4-Pyrimidinamine",C6H9N3,6400,6.4
"2,6-Dimethyl-4-Heptanone",C9H18O,2640,2.64
"2,6-Dimethyl-4-Heptanol",C9H20O,445,0.445
"2,6-Dimethyl-1,3-Dioxan-4-Ol Acetate",C8H14O4,1000000,1000
"2,6-Dimethoxyphenol",C8H10O3,17200,17.2
"2,6-Dihydroxybenzoic Acid",C7H6O4,9560,9.56
"2,6-Dihydroxy-Anthraquinone",C14H8O4,31,0.031
"2,6-Diethylaniline",C10H15N,670,0.67
"2,6-Dichlorophenol",C6H4Cl2O,2630,2.63
"2,6-Dichloronaphthalene",C10H6Cl2,540,0.54
"2,6-Dichlorodiphenyl Ether",C12H8Cl2O,2.08,0.00208
"2,6-Dichlorobiphenyl",C12H8Cl2,2.41,0.00241
"2,6-Dichlorobenzonitrile",C7H3Cl2N,14.6,0.0146
"2,6-Dichlorobenzoic Acid",C7H4Cl2O2,14100,14.1
"2,6-Dichlorobenzamide",C7H5Cl2NO,2730,2.73
"2,6-Dichloro-4-Nitroaniline",C6H4Cl2N2O2,6.3,0.0063
"2,6-Dibromoquinonechloroimide",C6H2Br2ClNO,58.8,0.0588
"2,6-Di-t-Butylphenol",C14H22O,2.5,0.0025
"2,6-Di-t-Butyl-4-Methylphenol (bht)",C15H24O,60,0.06
"2,6-Di-T-Butyl-p-Tolyl Methylcarbamate",C17H27NO2,7,0.007
"2,6-Di-Sec-Butylphenol",C14H22O,1.8,0.0018
"2,6-Anthracenedisulfonic Acid, 4,8-Diamino-9,10-",C14H10N2O10S2,780,0.78
"2,7-Naphthalenedisulfonic Acid, 4,5-Dihydroxy-3,",C22H16N4O8S2,28000,28
"2,7-Naphthalenedisulfonic Acid, 1-Amino-",C10H9NO6S2,167000,167
"2,7-Dichloronaphthalene",C10H6Cl2,23.6,0.0236
"2,7-Dichlorodibenzo-p-Dioxin",C12H6Cl2O2,3750,3.75
"2,8-Dichlorodibenzofuran",C12H6Cl2O,145,0.145
"2,8-Dichlorodibenzo-p-Dioxin",C12H6Cl2O2,167,0.167
3-(2-Methylphenoxy)pyridazine,C11H10N2O,2000,2
"3(2h)-Thiazoleacetic Acid, 4-Methyl-2-Thioxo-",C6H7NO2S2,2060,2.06
"3(2h)-Pyridazinone, 4,5-Dihydro-6-Methyl-2-Pheny",C11H12N2O,5300,5.3
"3(2h)-Isothiazolone, 2-Octyl-",C11H19NOS,500,0.5
"3,3-Dimethylpentane",C7H16,5.92,0.00592
"3,3-Dimethyl-2-Butanone",C6H12O,19000,19
"3,3-Dimethyl-2-Butanol",C6H14O,23700,23.7
"3,3-Dimethyl-1-Butanol",C6H14O,7560,7.56
"3,3'-Dimethylbenzidine",C14H16N2,1300,1.3
"3,3'-Dimethoxybenzidine",C14H16N2O2,60,0.06
"3,3'-Dichlorobiphenyl",C12H8Cl2,35.5,0.0355
"3,3'-Dichlorobenzidine",C12H10Cl2N2,3.1,0.0031
"3,4-Xylidine",C8H11N,3800,3.8
"3,4-Secocholane-3,4,24-Trioic Acid, 7,12-Dioxo-,",C24H34O8,700,0.7
"3,4-Piperidinedicarboxylic Acid",C7H11NO4,50000,50
"3,4-Hexanedione, Dioxime",C6H12N2O2,404,0.404
"3,4-Heptanediol, 3-Ethyl-6-Methyl-",C10H22O2,4400,4.4
"3,4-Dinitrophenol",C6H4N2O5,60500,60.5
"3,4-Dinitrobenzoic Acid",C7H4N2O6,6700,6.7
"3,4-Dimethylpyridine",C7H9N,52000,52
"3,4-Dimethylphenol",C8H10O,4760,4.76
"3,4-Dimethylbenzoic Acid",C9H10O2,129,0.129
"3,4-Dimethoxybenzoic Acid",C9H10O4,500,0.5
"3,4-Dimephenyl N-Methylcarbamate",C10H13NO2,580,0.58
"3,4-Dihydroxybenzoic Acid",C7H6O4,18200,18.2
"3,4-Dihydroxybenzaldehyde",C7H6O3,6310,6.31
"3,4-Dichlorotoluene",C7H6Cl2,26,0.026
"3,4-Dichlorophenoxyacetic Acid",C8H6Cl2O3,457,0.457
"3,4-Dichlorophenol",C6H4Cl2O,9260,9.26
"3,4-Dichloronitrobenzene",C6H3Cl2NO2,121,0.121
"3,4-Dichlorobiphenyl",C12H8Cl2,909,0.909
"3,4-Dichlorobenzyl Methylcarbamate",C9H9Cl2NO2,170,0.17
"3,4-Dichlorobenzyl Alcohol",C7H6Cl2O,1600,1.6
"3,4-Dichlorobenzoic Acid",C7H4Cl2O2,61.1,0.0611
"3,4-Dichloroaniline",C6H5Cl2N,92,0.092
"3,4-Dichloro-1-Butene",C4H6Cl2,420,0.42
"3,4-(methylenedioxy)cinnamic Acid",C10H8O4,27,0.027
"3,4'-Dichlorodiphenyl Ether",C12H8Cl2O,4.06,0.00406
"3,5-Pyridinedicarboxylic Acid, 2,6-Dimethyl-, Di",C9H13N5O2,90000,90
"3,5-Pyridinedicarboxylic Acid, 2,6-Dimethyl-",C9H9NO4,303,0.303
"3,5-Piperidinedicarbonitrile, 4-Butyl-4-Methyl-2",C12H15N3O2,1600,1.6
"3,5-Piperidinedicarbonitrile, 1,4,4-Trimethyl-2,",C10H11N3O2,1400,1.4
"3,5-Morpholinedione",C4H5NO3,17500,17.5
"3,5-Dinitrophenol",C6H4N2O5,4000,4
"3,5-Dinitrobenzoic Acid",C7H4N2O6,1350,1.35
"3,5-Dinitro-o-Cresol",C7H6N2O5,13,0.013
"3,5-Dinitro-l-Tyrosine",C9H9N3O7,8330,8.33
"3,5-Dimethylpyridine-n-Oxide",C7H9NO,1000000,1000
"3,5-Dimethylpyridine",C7H9N,33000,33
"3,5-Dimethylphenol",C8H10O,4880,4.88
"3,5-Dimethyl-4-Thia-Hepta-2,5-Diendioic Acid",C9H12O4S,1000,1
"3,5-Dimethyl-4-Heptanol",C9H20O,445,0.445
"3,5-Diiodotyrosine",C9H9I2NO3,600,0.6
"3,5-Diiodosalicylic Acid",C7H4I2O3,192,0.192
"3,5-Diiodo-l-Tyrosine",C9H9I2NO3,620,0.62
"3,5-Dichlorophenoxyacetic Acid",C8H6Cl2O3,961,0.961
"3,5-Dichlorophenol",C6H4Cl2O,5380,5.38
"3,5-Dichlorodiphenyl Ether",C12H8Cl2O,2.08,0.00208
"3,5-Dichlorobenzoic Acid",C7H4Cl2O2,147,0.147
"3,5-Dichloroaniline",C6H5Cl2N,784,0.784
"3,5-Dichloro-2,6-Dimethyl-4-Pyridinol",C7H7Cl2NO,10,0.01
"3,5-Bis(tert-Butyl)phenol Methylcarbamate",C16H25NO2,15,0.015
"3,6-Dimethylpiperazine-2,5-Dione",C6H10N2O2,100000,100
"3,6-Diethylpiperazine-2,5-Dione",C8H14N2O2,3300,3.3
"3,6-Dichloropicolinic Acid",C6H3Cl2NO2,7850,7.85
"3,6-Diaminoacridine",C13H11N3,500000,500
"3,9-Acridinediamine, 7-Ethoxy-, Monohydrate",C15H15N3O,66600,66.6
"4(1h)-Quinolinone, 1-Methyl-",C10H9NO,16600,16.6
4(1h)-Quinolinone,C9H7NO,6250,6.25
"4(1h)-Pyrimidinone, 5-Bromo-2-Phenyl-",C10H7BrN2O,83.3,0.0833
"4(1h)-Pyrimidinone, 5-Bromo-",C4H3BrN2O,62500,62.5
"4(1h)-Pyrimidinone, 2-Amino-5-Methyl-",C5H7N3O,4000,4
"4(1h)-Pyrimidinone, 2,3-Dihydro-5-Methyl-2-Thiox",C5H6N2OS,509,0.509
"4(1h)-Pteridinone, Hydrazone",C6H6N6,2220,2.22
"4(1h)-Pteridinone, 7-Methyl-",C7H6N4O,4440,4.44
"4(1h)-Pteridinone, 6-Methyl-",C7H6N4O,3640,3.64
"4(1h)-Pteridinone, 6,7-Diphenyl-",C18H12N4O,200,0.2
"4(1h)-Pteridinone, 6,7-Dimethyl-",C8H8N4O,909,0.909
"4(1h)-Pteridinone, 2-Amino-",C6H5N5O,175,0.175
4(1h)-Pteridinethione,C6H4N4S,370,0.37
4-(2-Aminoethyl)phenol,C8H11NO,10400,10.4
4(3h)-Pyrimidone,C4H4N2O,370000,370
"4(3h)-Pteridinone, 3-Methyl-",C7H6N4O,14300,14.3
4-(4-Nitrophenylazo)phenol,C12H9N3O3,3.89,0.00389
4-((4-Nitrophenyl)azo)benzenamine,C12H10N4O2,34,0.034
"4,4-Dimethyloctane",C10H22,2.2,0.0022
"4,4-Dimethyl-1-Pentanol",C7H16O,3350,3.35
"4,4-Bis(dimethylamino)benzophenone",C17H20N2O,400,0.4
"4,4'-Oxydi-2-Butanol",C8H18O3,1000000,1000
"4,4'-Methylenebis(2-Chloroaniline)",C13H12Cl2N2,13.9,0.0139
"4,4'-Dipyridyl",C10H8N2,4530,4.53
"4,4'-Dicyano-4,4'azo-Di-Valeric Acid",C12H16N4O4,2750,2.75
"4,4'-Dichlorodiphenyl Ether",C12H8Cl2O,3.79,0.00379
"4,4'-Dichlorobiphenyl",C12H8Cl2,620,0.62
"4,5-Methylenephenanthrene",C15H10,1.1,0.0011
"4,5-Isoxazoledione, 3-Methyl-, 4-Oxime",C4H4N2O3,37000,37
"4,5-Dithia-Octandioic Acid",C6H10O4S2,134000,134
"4,5-Dichloroveratrole",C8H8Cl2O2,72,0.072
"4,6-Pteridinedione, 1,2,3,5-Tetrahydro-7-Methyl-",C7H6N4O2S,800,0.8
"4,6-Pteridinediamine",C6H6N6,41.7,0.0417
"4,6-Dinitro-o-Cresol",C7H6N2O5,198,0.198
"4,6-Dinitro-Biphenyl-3-Ol",C12H8N2O5,9,0.009
"4,6-Dihydroxypryimidine",C4H4N2O2,2500,2.5
"4,6-Dichloro-o-Cresol",C7H6Cl2O,1600,1.6
"4,6-Bis(isopropylamino)-s-Triazin-2-Ol",C9H17N5O,103,0.103
4'-((6-Hydroxy-m-Tolyl)azo)acetanilide,C15H15N3O2,1.18,0.00118
"4,7-Pteridinediamine",C6H6N6,200,0.2
"5,5-Dimethyl-1,3-Cyclohexanedione",C8H12O2,4160,4.16
"5,5'-Barbituric Acid, 5,5'-Dihydroxy-1,1'-Dimeth",C10H10N4O8,550000,550
"5,6-Dimethylchrysene",C20H16,250,0.25
"5,8-Quinolinedione, Dioxime",C9H7N3O2,30,0.03
6-2 Ftoh,C8H5F13O,18.6,0.0186
6(5h)-Pteridinone,C6H4N4O,286,0.286
"6,7-Secomorphinan-6-Oic Acid, 8,14-Didehydro-4,5",C19H21NO5,20000,20
"6,7-Pteridinedione, 5,8-Dihydro-",C6H4N4O2,333,0.333
"6,7-Dihydroxy-4-Methylcoumarin",C10H8O4,100,0.1
7(1h)-Pteridinone,C6H4N4O,1110,1.11
7(1h)-Pteridinethione,C6H4N4S,323,0.323
"7(8h)-Pteridinone, 8-Methyl-",C7H6N4O,20000,20
"7(8h)-Pteridinone, 6,8-Dimethyl-",C8H8N4O,5710,5.71
(7(9)h-Purin-6-Yl)carbamic Acid Methyl Ester,C7H7N5O2,625,0.625
Racemethorphan,C18H25NO,36000,36
Raffinose,C18H32O16,203000,203
Ranimustine,C10H18ClN3O7,9000,9
(r)-(-)-Carvone,C10H14O,1310,1.31
Reposal,C14H18N2O3,446,0.446
Reserpine,C33H40N2O9,73,0.073
Resmethrin,C22H26O3,379,0.379
Resorcinol,C6H6O2,717000,717
Resorufin,C12H7NO3,20000,20
Resveratrol,C14H12O3,30,0.03
Rhodamine 6g,C28H31ClN2O3,20000,20
Rhodamine B,C28H31ClN2O3,12000,12
Ribavirin,C8H12N4O5,142000,142
"Ribitol, 1,3:2,4-Di-o-Methylene-",C7H12O5,42000,42
Riboflavin,C17H20N4O6,84.7,0.0847
Ricidine,C8H8N2O2,2700,2.7
Rifampin,C43H58N4O12,1400,1.4
Rimsulfuron,C14H17N5O7S2,10,0.01
"(r)-Nona-3,4-Diene-6,8-Diyn-1-Ol",C9H8O,1700,1.7
Rolitetracycline,C21H23NO6,555000,555
Ronidazole,C6H10N4O4,2900,2.9
Ronnel,C8H8Cl3O3PS,1,0.001
Rosaniline,C20H20ClN3,2650,2.65
Rosolic Acid,C19H14O3,1200,1.2
Rotenone,C23H22O6,20,0.02
Rovral (iprodione),C13H13Cl2N3O3,13.9,0.0139
Rubeanic Acid,C2H4N2S2,369,0.369
Rutin,C27H30O16,125,0.125
Saccharin,C7H5NO3S,4000,4
Safranine T,C20H19ClN4,50000,50
Salicin,C13H18O7,40000,40
Salicylanilide,C13H11NO2,55,0.055
"Salicylanilide, 4'-Chloro-3-Nitro-",C13H9ClN2O4,8.34,0.00834
"Salicylanilide, 4'-Chloro-5-Nitro-",C13H9ClN2O4,2.21,0.00221
Salicylic Acid,C7H6O3,2240,2.24
"Salicylic Acid, 5-(2h-Benzotriazol-2-Yl)-",C13H9N3O3,250,0.25
Salinazid,C13H11N3O2,50,0.05
Salithion,C8H9O3PS,58,0.058
Santonin,C15H18O3,200,0.2
Sarin,C4H10FO2P,1000000,1000
Scopolamine,C17H21NO4,100000,100
Scopolamine Bromide,C17H22BrNO4,666000,666
Scyllitol,C6H12O6,10100,10.1
Secbumeton,C10H19N5O,620,0.62
Sec-Butylacetate,C6H12O2,6200,6.2
Sec-Butylbenzene,C10H14,17.6,0.0176
Sec-Butyl Ethylamine,C6H15N,62400,62.4
Sec-Butyl Methyl Ether,C5H12O,16400,16.4
"Selenic Acid, Disodium Salt",Na2O4Se,585000,585
Selenium Dioxide,O2Se,3840,3.84
"Semioxamazide, 1-[3-(5-Nitro-2-Furanyl)allyliden",C9H8N4O5,4,0.004
"Semioxamazide, 2-(2-Hydroxyethyl)-1-[3-(5-Nitro-",C11H12N4O6,112,0.112
Serine,C3H7NO3,425000,425
"Serine, O-Ethyl-",C5H11NO3,445000,445
Sesone,C8H8Cl2NaO5S,250000,250
Sethoxydim,C17H29NO3S,25,0.025
Shikimic Acid,C7H10O5,150000,150
Siduron,C14H20N2O,18,0.018
Silafluofen,C25H29FO2Si,1000,1
Silver Acetate,C2H3AgO2,10000,10
Silver Carbonate,CAg2O3,33.3,0.0333
Silver Citrate,C6H5Ag3O7,286,0.286
Silver Cyanide,CAgN,23,0.023
Silver Lactate,C3H5AgO3,66700,66.7
Silver Oxalate,C2Ag2O4,41.7,0.0417
Silver Perchlorate,HAgClO4,865000,865
Silvex,C9H7Cl3O3,71,0.071
Simazine,C7H12ClN5,6.2,0.0062
Simetone,C8H15N5O,3200,3.2
Simetryn,C8H15N5S,450,0.45
Simvastatin,C25H38O5,300,0.3
"S-<(e)-1,2-Dichloro-Vinyl>-l-Cysteine",C5H7Cl2NO2S,7000,7
Sobrerol,C10H18O2,32000,32
Sodium Arsanilate,C6H7AsNNaO3,167000,167
Sodium Arsenate,AsNa3O4,267000,267
Sodium Ascorbate,C6H7NaO6,620000,620
Sodium Bicarbonate,CHNaO3,100000,100
Sodium Bitartrate,C4H4Na2O6,100000,100
Sodium Bromate,BrNaO3,364000,364
Sodium Cacodylate,C2H6AsNaO2,2000000,2000
Sodium Chlorate,ClNaO3,100000,100
Sodium Citrate,C6H5Na3O7,434000,434
"Sodium Citrate, Acid",C6H6Na2O7,333000,333
Sodium Dibunate,C18H23NaO3S,750000,750
Sodium Ethyl Sulfate,C2H5NaO4S,588000,588
Sodium Formate,CHNaO2,434000,434
Sodium Gluconate,C6H11NaO7,590000,590
Sodium Hydrosulfide,HNaS,500000,500
Sodium Iodate,INaO3,90000,90
Sodium Iodomethamate,C8H3I2NNa2O5,500000,500
Sodium Lactate,C3H5NaO3,1000000,1000
Sodium Nitrate,NNaO3,730000,730
Sodium Perchlorate,ClNaO4,2100000,2100
Sodium Phenolsulfonate,C6H5NaO4S,192000,192
Sodium Propionate,C3H5NaO2,500000,500