Compound Name,Formula,Water Solubility (mg/L),Water Solubility (g/L)
Xylitol,C5H12O5,642000,642
"Xylose, Methyl Hemiacetal, Pentaacetate, (1r)-d-",C16H24O11,6000,6
Yohimbine Hydrochloride,C21H27ClN2O3,7300,7.3
(z)-2-Butenoic Acid (isocrotonic Acid),C4H6O2,1000000,1000
"[1,1'-Biphenyl]-3-Ol, 4-Nitro-",C12H9NO3,30,0.03
"[1,1'-Biphenyl]-2,2'-Disulfonic Acid, 4,4'-Diami",C12H12N2O6S2,819,0.819
"[1,1'-Binaphthalene]-2,2',6,6'-Tetrol",C20H14O4,1500,1.5
[[3-[[[(2-Chloroethyl) Nitrosoamino] Carbonyl] A,C11H13ClFN5O6S,12000,12
"[3,3]db18c6-Dibenzo Crown Ether",C20H24O6,7.3,0.0073
[4-(2-Ethoxyethylamino)phenyl]-(4-Aminophenyl)-s,C16H20N2O3S,100,0.1
8-2 Ftoh,C10H5F17O,13.7,0.0137
9-(2-o-Propionyl-Beta-d- Arabinofuranosyl)adenin,C25H45IN5O5SSi,117,0.117
9-(2-o-Butyryl-Beta-d- Arabinofuranosyl)adenine,C26H47IN5O5SSi,34.1,0.0341
10:2 Ftoh,C12H5F21O,110,0.11
"1,10-Phenanthroline, 5-Nitro-",C12H7N3O2,27.3,0.0273
"1,10-Phenanthroline, 4,7-Dimethyl-",C14H12N2,22.4,0.0224
"1,10-Phenanthroline, 3,4,7,8-Tetramethyl-",C16H16N2,1.51,0.00151
"1,10-Decanediol",C10H22O2,1400,1.4
"1,1,1-Tris(hydroxymethyl)propane",C6H14O3,1000000,1000
"1,1,1-Trifluoro-Acetone Oxime",C3H4F3NO,75000,75
"1,1,1-Trifluoro-2-Propanol",C3H5F3O,233000,233
"1,1,1-Trifluoro-2-Chloroethane",C2H2ClF3,9200,9.2
"1,1,1-Trifluoro-2,2-Dichloroethane",C2HCl2F3,2100,2.1
"1,1,1-Trichloropropane",C3H5Cl3,1900,1.9
"1,1,1-Trichloroethane",C2H3Cl3,1290,1.29
"1,1,1-Trichloro-2-Propanol",C3H5Cl3O,28600,28.6
"1,12-Dodecanedicarboxylic Acid",C14H26O4,200,0.2
"1,1,2-Trichlorotrifluoroethane",C2Cl3F3,170,0.17
"1,1,2-Trichloropropane",C3H5Cl3,1900,1.9
"1,1,2-Trichloroethane",C2H3Cl3,4590,4.59
"1,1,3-Trimethylcyclopentane",C8H16,3.73,0.00373
"1,1,3-Trimethylcyclohexane",C9H18,1.77,0.00177
"1,2,3-Trimethylbenzene",C9H12,75.2,0.0752
"1,2,3-Trihydroxybenzene",C6H6O3,507000,507
"1,2,3-Trichloropropane",C3H5Cl3,1750,1.75
"1,2,3-Trichlorobenzene",C6H3Cl3,18,0.018
"1,2,3-Trichloro-4-Methoxybenzene",C7H5Cl3O,10.8,0.0108
"1,2,3-Tribromobenzene",C6H3Br3,2.87,0.00287
"1,2,3-Thiadiazole-4-Carboxylic Acid, 5-Methyl-",C4H4N2O2S,50000,50
"1,2,3-Thiadiazole, 5-Methyl-",C3H4N2S,125000,125
"1,2,3-Thiadiazole",C2H2N2S,333000,333
"1,2,3-Propanetriol, Trimethanesulfonate",C6H14O9S3,2100,2.1
"1,2,3-Propanetriol, 1,3-Dinitrate",C3H6N2O7,78400,78.4
"1,2,3-Propanetriol Trinitrate",C3H5N3O9,1380,1.38
"1,2,3-Propanetricarboxylic Acid, 2-Hydroxy-, Mon",C6H8O7,1000000,1000
"1,2,3-Propanetricarboxylic Acid",C6H8O6,332000,332
"1,2,3-Propanetricarboxamide, 2-Hydroxy-",C6H11N3O4,27000,27
"1,2,3-Cyclopropanetricarboxylic Acid",C6H6O6,1000000,1000
"1,2,3-Butanetricarboxylic Acid, 2,3-Dimethyl-",C9H14O6,169000,169
"1,2,3-Benzothiadiazol-5-Amine",C6H5N3S,7500,7.5
"1,2,3-Benzenetricarboxylic Acid, 5-Chloro-",C9H5ClO6,20300,20.3
"1,2,3-Benzenetricarboxylic Acid, 5-Bromo-",C9H5BrO6,10300,10.3
"1,2,4-Trimethylbenzene",C9H12,57,0.057
"1,2,4-Trichlorodibenzo-p-Dioxin",C12H5Cl3O2,8410,8.41
"1,2,4-Trichlorobenzene",C6H3Cl3,49,0.049
"1,2,4-Tribromobenzene",C6H3Br3,4.9,0.0049
"1,2,4-Triazolidine-3,5-Dione, 4-Methyl-1-Phenyl-",C9H9N3O2,200,0.2
"1,2,4-Triazin-3-Amine, 5,6-Dimethyl-",C5H8N4,10000,10
"1,2,4-Thiadiazolidine-3,5-Dithione",C2H2N2S3,2600,2.6
"1,2,4-Thiadiazole, 5-Amino-3-Ethoxy-",C4H7N3OS,32400,32.4
"1,2,4-Thiadiazol-5-Amine, 3-Methoxy-",C3H5N3OS,7500,7.5
"[1,2,5]selenadiazolo[3,4-D]pyrimidine-5,7(4h,6h)",C6H6N4O2Se,1230,1.23
"1,3,2-Oxazaphosphepin-2(3h)-Amine, N,n-Bis(2-Chl",C8H17Cl2N2O2P,30000,30
"1,3,2-Dioxathiolane, 2-Oxide",C2H4O3S,180000,180
"1,3,4-Thiadiazolidine-2,5-Dithione",C2H2N2S3,26400,26.4
"1,3,4-Pentanetricarboxylic Acid, [r-(r*,s*)]-",C8H12O6,13400,13.4
"1,3,4-Pentanetricarboxylic Acid, [r-(r*,r*)]-",C8H12O6,33700,33.7
"1,3,5-Trithiane-1,3,5-Trioxide",C3H6O3S3,1340,1.34
"1,3,5-Trioxane-2,4,6-Triimine",C3H3N3O3,100,0.1
"1,3,5-Trioxane",C3H6O3,175000,175
"1,3,5-Trinitrobenzene",C6H3N3O6,492,0.492
"1,3,5-Trimethylbenzene",C9H12,48.2,0.0482
"1,3,5-Trihydroxybenzene",C6H6O3,10600,10.6
"1,3,5-Triethylbenzene",C12H18,140,0.14
"1,3,5-Trichloroisocyanuric Acid",C3Cl3N3O3,12000,12
"1,3,5-Trichlorobenzene",C6H3Cl3,6.01,0.00601
"1,3,5-Tribromobenzene",C6H3Br3,79,0.079
"1,3,5-Triazine-2,4-Diamine, N-Ethyl-",C5H9N5,10000,10
"1,3,5-Triazine-2,4-Diamine, N-(phenylmethyl)-",C10H11N5,2500,2.5
"1,3,5-Triazine-2,4-Diamine, N,n-Diethyl-",C7H13N5,4000,4
"1,3,5-Triazine-2,4-Diamine, N,n'-Dimethyl-",C5H9N5,15000,15
"1,3,5-Triazine-2,4,6(1h,3h,5h)-Trione, Dihydrate",C3H3N3O3,5000,5
"1,3,5-Triazin-2,4-Dione, 6-Amino-",C3H4N4O2,76.9,0.0769
"1,3,5-Triazin-2(1h)-One, 4,6-Diamino-",C3H5N5O,75,0.075
"1,3,5-Benzenetrisulfonamide",C6H9N3O6S3,1500,1.5
"1,3,5-Benzenetricarboxylic Acid, 2-Methoxy-",C10H8O7,7000,7
"1,3,5-Benzenetricarboxylic Acid, 2-Hydroxy-",C9H6O7,5000,5
"1,3,5-Benzenetricarboxylic Acid",C9H6O6,26300,26.3
"1,3,5,-Trinitrohexahydro-1,3,5-Triazine",C3H6N6O6,59.7,0.0597
"1,3,6-Naphthalenetrisulfonic Acid, 4-Amino-",C10H9NO9S3,184000,184
"1,3,7-Trimethyl Uric Acid",C8H10N4O3,5500,5.5
"1,3,7-Trichloronaphthalene",C10H5Cl3,644,0.644
"1,4,5-Trimethylnaphthalene",C13H14,2.1,0.0021
"1,8,8-Trimethyl-3-Azabicyclo[3.2.1]octane-2,4-Di",C10H15NO2,6670,6.67
"2,2,2-Trifluoroethanol",C2H3F3O,1000000,1000
"2,2,2-Trichloroethanol",C2H3Cl3O,83300,83.3
"2,2,3-Trimethylpentane",C8H18,2.4,0.0024
"2,2,3-Trimethyl-3-Pentanol",C8H18O,6980,6.98
"2,2,3-Trichloro-1,1-Butanediol",C4H7Cl3O2,26300,26.3
"2,2',3'-Trichlorobiphenyl",C12H7Cl3,29.3,0.0293
"2,2,4-Trimethylpentane",C8H18,2.44,0.00244
"2,2,4-Trimethyl-1,3-Pentanediol Diisobutyrate",C16H30O4,15,0.015
"2,2,4-Trimethyl-1,3-Pentanediol",C8H18O2,19000,19
"2,2,4-Pentanetricarboxylic Acid",C8H12O6,159000,159
"2,2',4-Trichlorodiphenyl Ether",C12H7Cl3O,3.07,0.00307
"2,2',4-Trichlorobiphenyl",C12H7Cl3,833,0.833
"2,2,5-Trimethylhexane",C9H20,1.15,0.00115
"2,2',5-Trichlorobiphenyl",C12H7Cl3,40,0.04
"2,2',6-Trichlorobiphenyl",C12H7Cl3,32.4,0.0324
"2,3,3-Trichloro-2-Propenoic Acid",C3HCl3O2,60000,60
"2,3,3,-Trimethyl-2-Butanol",C7H16O,22000,22
"2,3,4-Trimethylpentane",C8H18,2.3,0.0023
"2,3,4-Trihydroxybenzoic Acid",C7H6O5,1000,1
"2,3,4-Trichloronitrobenzene",C6H2Cl3NO2,26,0.026
"2,3,4-Trichloro-1,1'-Biphenyl",C12H7Cl3,17,0.017
"2,3,4-Pyridinetricarboxylic Acid",C8H5NO6,12000,12
"2,3,4'-Trichlorobiphenyl",C12H7Cl3,14.2,0.0142
"2',3,4-Trichlorodiphenyl Ether",C12H7Cl3O,1.73,0.00173
"2,3,5-Trimethylphenol",C9H12O,762,0.762
"2,3,5-Trichlorodiphenyl Ether",C12H7Cl3O,1.77,0.00177
"2',3,5-Trichlorobiphenyl",C12H7Cl3,12.9,0.0129
"2,3,6-Trimethylphenol",C9H12O,1580,1.58
"2,3,6-Trimethylnaphthalene",C13H14,1.7,0.0017
"2,3,6-Trichlorophenoxyacetic Acid",C8H5Cl3O3,613,0.613
"2,3,6-Trichlorophenol",C6H3Cl3O,450,0.45
"2,3,6-Trichloronaphthalene",C10H5Cl3,167,0.167
"2,3,6-Trichlorodiphenyl Ether",C12H7Cl3O,30.7,0.0307
"2,3,6-Trichlorobenzoic Acid",C7H3Cl3O2,7700,7.7
"2,3',6-Trichlorobiphenyl",C12H7Cl3,386,0.386
"2,4(1h,3h)-Quinazolinedione, 6,8-Dinitro-",C8H4N4O6,157,0.157
"2,4(1h,3h)-Pyrimidinedione, Dihydro-6-Phenyl-",C10H10N2O2,40000,40
"2,4(1h,3h)-Pyrimidinedione, 5-Methyl-1-(phenylme",C12H12N2O2,1200,1.2
"2,4(1h,3h)-Pyrimidinedione, 5-Ethyl-",C6H8N2O2,1600,1.6
"2,4(1h,3h)-Pyrimidinedione, 5-Aminodihydro-1,3-d",C6H9N3O2S,14300,14.3
"2,4(1h,3h)-Pyrimidinedione, 5-Amino-; Or 5-Amino",C4H5N3O2,500,0.5
"2,4(1h,3h)-Pyrimidinedione, 1-Methyl-5-Nitro-",C5H5N3O4,1720,1.72
"2,4(1h,3h)-Pteridinedione, 7-Hydroxy-1,6-Dimethy",C8H8N4O3,1060,1.06
"2,4(1h,3h)-Pteridinedione, 6-Acetyl-1,3,7-Trimet",C11H12N4O3,2100,2.1
"2,4(1h,3h)-Pteridinedione, 1,6,7-Trimethyl-",C9H10N4O2,1590,1.59
"2,4(1h,3h)-Pteridinedione, 1,3-Dimethyl-",C8H8N4O2,6670,6.67
"2,4(1h,3h)-Pteridinedione, 1,3,6,7-Tetramethyl-",C10H12N4O2,10000,10
"2,4(3h,5h)-Pyrimidinedione, 6-Amino-5,5-Diethyl-",C8H13N3O2,7350,7.35
"2,4,4'-Trichlorodiphenyl Ether",C12H7Cl3O,16.5,0.0165
"2,4,4'-Trichlorobiphenyl",C12H7Cl3,27,0.027
"2,4,5-Trimethylpyridine",C8H11N,20000,20
"2,4,5-Trimethylaniline",C9H13N,1500,1.5
"2,4,5-Trichlorophenoxyacetic Acid",C8H5Cl3O3,278,0.278
"2,4,5-Trichlorophenol",C6H3Cl3O,882,0.882
"2,4,5-Trichloronitrobenzene",C6H2Cl3NO2,29.4,0.0294
"2,4,5-Trichlorobiphenyl",C12H7Cl3,16.3,0.0163
"2,4,5-Trichlorobenzoic Acid",C7H3Cl3O2,810,0.81
"2,4,5-Tes",C8H6Cl3NaO5S,60000,60
"2,4,5-Tb",C10H9Cl3O3,42,0.042
"2,4,5-T, Ethyl Ester",C10H9Cl3O3,4.01,0.00401
"2,4',5-Trichlorodiphenyl Ether",C12H7Cl3O,99.3,0.0993
"2,4,6-Tris(1-Aziridinyl)-1,3,5-Triazine",C9H12N6,400000,400
"2,4,6-Trinitrotoluene",C7H5N3O6,115,0.115
"2,4,6-Trinitroresorcinol",C6H3N3O8,5340,5.34
"2,4,6-Trinitrophenol",C6H3N3O7,12700,12.7
"2,4,6-Trinitrophenetol",C8H7N3O7,100,0.1
"2,4,6-Trinitrochlorobenzene",C6H2ClN3O6,530,0.53
"2,4,6-Trinitrobenzoic Acid",C7H3N3O8,20100,20.1
"2,4,6-Trinitroanisole",C7H5N3O7,200,0.2
"2,4,6-Trimethylphenol",C9H12O,1200,1.2
"2,4,6-Trimethylbenzoic Acid",C10H12O2,723,0.723
"2,4,6-Trihydroxybenzophenone",C13H10O4,3100,3.1
"2,4,6-Triethoxy-s-Triazine",C9H15N3O3,7000,7
"2,4,6-Trichlorophenoxyacetic Acid",C8H5Cl3O3,248,0.248
"2,4,6-Trichlorophenol",C6H3Cl3O,500,0.5
"2,4,6-Trichlorobiphenyl",C12H7Cl3,25.2,0.0252
"2,4,6-Trichloroanisole",C7H5Cl3O,10,0.01
"2,4,6-Trichloroaniline",C6H4Cl3N,40,0.04
"2,4,6-Trichloro-3-Methylphenol",C7H5Cl3O,112,0.112
"2,4,6-Tribromophenol",C6H3Br3O,70,0.07
"2,4,6-Tri(tert-Butyl)phenol",C18H30O,35,0.035
"2,4,6-Cycloheptatrien-1-One, 5-Bromo-2-Hydroxy-4",C10H11BrO2,52,0.052
"2,4,6-Cycloheptatrien-1-One, 5-Bromo-2-Hydroxy-",C7H5BrO2,55,0.055
"2,4,6-Cycloheptatrien-1-One, 3-Bromo-2-Hydroxy-",C7H5BrO2,738,0.738
"2,4,6-Cycloheptatrien-1-One, 3,7-Dibromo-2-Hydro",C10H10Br2O2,11,0.011
"2,4,6-Cycloheptatrien-1-One, 3,5-Dibromo-2-Hydro",C7H4Br2O2,88,0.088
"2,4,6-Cycloheptatrien-1-One, 3,5,7-Tribromo-2-Hy",C7H3Br3O2,92,0.092
"2,4,6-Cycloheptatrien-1-One, 2-Hydroxy-4-(1-Meth",C10H12O2,1200,1.2
"2,4,6-Collidine",C8H11N,35000,35
"2,4',6-Trichlorodiphenyl Ether",C12H7Cl3O,33.7,0.0337
"2,4,7-Pteridinetriamine",C6H7N7,222,0.222
"2,7(1h,8h)-Pteridinedione",C6H4N4O2,714,0.714
"3,11-Dihydroxy-Androstan-17-One",C19H30O3,78.2,0.0782
"3-(1,3-Dimethylbutoxy)propane-1,2-Diol",C9H20O3,9910,9.91
"3,3',4-Trichlorodiphenyl Ether",C12H7Cl3O,1,0.001
"3,4,4'-Trichlorodiphenyl Ether",C12H7Cl3O,59.8,0.0598
"3,4,4'-Trichlorobiphenyl",C12H7Cl3,719,0.719
"3,4,5-Trihydroxybenzoic Acid",C7H6O5,11900,11.9
"3,4,5-Trihydroxy-Valeric Acid-<n-'-Phenyl-Hydraz",C11H16N2O4,200000,200
"3,4,5-Trichloroveratrole",C8H7Cl3O2,10.3,0.0103
"3,4,5-Trichloro-2-Methoxyphenol",C7H5Cl3O2,306,0.306
"3,4',5-Trichlorodiphenyl Ether",C12H7Cl3O,82.6,0.0826
"4,6(1h,5h)-Pyrimidinedione",C4H4N2O2,2500,2.5
"4,6,7-Pteridinetriamine",C6H7N7,80,0.08
"4,7(1h,8h)-Pteridinedione, 2,3-Dihydro-6-Methyl-",C7H6N4O2S,1200,1.2
"4,7(1h,8h)-Pteridinedione",C6H4N4O2,250,0.25
"7,12-Dime-Benz(a)anthracene",C20H16,610,0.61
"9,10-Phenanthrenedione",C14H8O2,400,0.4
"9,10-Dimethylanthracene",C16H14,560,0.56
"9,10-Dihydrophenanthrene",C14H12,4.18,0.00418
"9,10-Anthracenedicarboxylic Acid, 9,10-Dihydro-,",C16H12O4,500,0.5
"10,10'-Oxydiphenoxarsine",C24H16As2O3,5,0.005
"1,1,1,2-Tetrachloroethane",C2H2Cl4,1070,1.07
"1,1,1,2-Tetrachloro-2,2-Difluoroethane",C2Cl4F2,100,0.1
"1,1,2,2-Tetrachloroethane",C2H2Cl4,2830,2.83
"1,1,2,2-Tetrabromoethane",C2H2Br4,678,0.678
"1,1,2,2-Ethanetetrol, Tetraacetate",C10H14O8,2100,2.1
"1,1,2,2-Ethanetetracarboxylic Acid, Tetrahydrazi",C6H14N8O4,2000,2
"1,1,2,2,-Tetrachlorodifluoroethane",C2Cl4F2,120,0.12
"1,1':4',1''-Terphenyl",C18H14,180,0.18
"1,1,4,4-Tetramethoxy-But-2-Ene",C8H16O4,200000,200
"1-[[2-(2,4-Dichlorophenyl)-4-Ethyl-1,3-Dioxolan-",C14H15Cl2N3O2,80,0.08
"1,2:3,4-Diepoxybutane Dl",C4H6O2,1000000,1000
"1,2:3,4-Diepoxybutane (2s,3s)",C4H6O2,1000000,1000
"1,2:3,4-Diepoxybutane (2r,3r)",C4H6O2,1000000,1000
"1,2:3,4-Diepoxybutane",C4H6O2,1000000,1000
"1,2,3,4-Tetrahydro-1,2,3,4-D4-Naphthalene-D8",C10D12,20000,20
"1,2,3,4-Tetrachloronaphthalene",C10H4Cl4,4260,4.26
"1,2,3,4-Tetrachlorodibenzo-p-Dioxin",C12H4Cl4O2,63000,63
"1,2,3,4-Tetrachlorobenzene",C6H2Cl4,5.92,0.00592
"1,2,3,4-Dibenzanthracene",C22H14,1600,1.6
"1,2,3,5-Tetrafluorobenzene",C6H2F4,742,0.742
"1,2,3,5-Tetrachloronaphthalene",C10H4Cl4,3700,3.7
"1,2,3,5-Tetrachlorobenzene",C6H2Cl4,5.1,0.0051
"1,2,3,7-Tetrachlorodibenzodioxin",C12H4Cl4O2,43000,43
"1,2,4,5-Tetramethylbenzene",C10H14,3.48,0.00348
"1,2,4,5-Tetrafluorobenzene",C6H2F4,632,0.632
"1,2,4,5-Tetrachlorobenzene",C6H2Cl4,59.5,0.0595
"1,2,4,5-Tetrabromobenzene",C6H2Br4,400,0.4
"[1,2,4,5]tetrazino[1,2-A][1,2,4,5]tetrazine, Oct",C4H12N6,140000,140
"1,3,5,7-Tetrachloronaphthalene",C10H4Cl4,4000,4
"1,3,6,8-Tetrachlorodibenzo-p-Dioxin",C12H4Cl4O2,32000,32
"1,3,6,8-Tetraazatricyclo(4.4.1.13,8)dodecane",C8H16N4,930000,930
"1,4,5,8-Tetraaminoanthraquinone",C14H12N4O2,300,0.3
"1,4,6,7-Tetrachloronaphthalene",C10H4Cl4,8100,8.1
"1,8,15-Triazacycloheneicosane-2,9,16-Trione",C18H35N3O3,9300,9.3
"2,2',3,3'-Tetrachlorobiphenyl",C12H6Cl4,156,0.156
"2,2',3,4'-Tetrachlorobiphenyl",C12H6Cl4,608,0.608
"2,2',3,5'-Tetrachlorobiphenyl",C12H6Cl4,10,0.01
"2,2',4,4'-Tetrachlorobiphenyl",C12H6Cl4,541,0.541
"2,2',4,5'-Tetrachlorobiphenyl",C12H6Cl4,781,0.781
"2,2',4,6-Tetrachlorobiphenyl",C12H6Cl4,654,0.654
"2,2',5,5'-Tetrachlorobiphenyl",C12H6Cl4,153,0.153
"2,2',5,6'-Tetrachlorobiphenyl",C12H6Cl4,476,0.476
"2,2',6,6'-Tetrachlorobiphenyl",C12H6Cl4,119,0.119
"2,3,4,4'-Pcb",C12H6Cl4,389,0.389
"2,3',4,4'-Tetrachlorobiphenyl",C12H6Cl4,368,0.368
"2,3,4,5-Tetraiodofuran",C4HI4N,200,0.2
"2,3,4,5-Tetrachloronitrobenzene",C6HCl4NO2,7.3,0.0073
"2,3,4,5-Tetrachloroanisole",C7H4Cl4O,1.35,0.00135
"2,3,4,5-Pcb",C12H6Cl4,140,0.14
"2,3',4',5-Tetrachlorobiphenyl",C12H6Cl4,410,0.41
"2,3,4,6-Tetrachlorophenol",C6H2Cl4O,23,0.023
"2,3,5,6-Tetrachloronitrobenzene",C6HCl4NO2,2.09,0.00209
"2,3,5,6-Tetrachlorobiphenyl",C12H6Cl4,164,0.164
"2,3,7,8-Tetrachlorodibenzofuran",C12H4Cl4O,69200,69.2
"2,3,7,8-Tetrachlorodibenzo-p-Dioxin",C12H4Cl4O2,20000,20
"2,4,4',5-Tetrachlorobiphenyl",C12H6Cl4,4960,4.96
"2,4,4',6-Tetrachlorobiphenyl",C12H6Cl4,911,0.911
"2,4,6(1h,3h,5h)-Pyrimidinetrione, 5-Nitro-",C4H3N3O5,900,0.9
"2,4,6(1h,3h,5h)-Pyrimidinetrione, 5-Methyl-5-(2-",C9H14N2O3,1800,1.8
"2,4,6(1h,3h,5h)-Pyrimidinetrione, 5-Ethyl-5-(1-P",C11H17N3O3,1670,1.67
"2,4,6(1h,3h,5h)-Pyrimidinetrione, 5-Butyl-5-Meth",C9H14N2O3,1800,1.8
"2,4,6(1h,3h,5h)-Pyrimidinetrione, 5-Butyl-5-(2-m",C12H20N2O3,750,0.75
"2,4,6(1h,3h,5h)-Pyrimidinetrione, 5-(acetyloxy)-",C6H6N2O5,36400,36.4
"2,4,6(1h,3h,5h)-Pyrimidinetrione, 5-(3-Methylbut",C12H20N2O3,610,0.61
"2,4,6(1h,3h,5h)-Pyrimidinetrione, 5-(2-Methylpro",C11H18N2O3,1250,1.25
"2,4,6(1h,3h,5h)-Pyrimidinetrione, 1-(2,3-Dihydro",C15H18N2O5,5000,5
"2,4,6(1h,3h,5h)-Pyrimidinetrione, 1,3-Dimethyl-5",C6H7N3O5,167000,167
"2,4,6(3h)-Pteridinetrione, 1,5-Dihydro-",C6H4N4O3,135,0.135
"2,4,6,7-Pteridinetetramine",C6H8N8,76.9,0.0769
"2,4,7(1h,3h,8h)-Pteridinetrione",C6H4N4O3,83.3,0.0833
"3,3',4,4'-Tetrachlorobiphenyl",C12H6Cl4,56900,56.9
"3,3',5,5'-Tetrachlorobiphenyl",C12H6Cl4,1230,1.23
"3',3'',5,5''-Tetraiodophenolphthalein",C20H10I4O4,700,0.7
"4,6,7(1h)-Pteridinetrione, 5,8-Dihydro-",C6H4N4O3,37,0.037
"4,6,7(1h)-Pteridinetrione, 2,3,5,8-Tetrahydro-2-",C6H4N4O3S,1250,1.25
"1,1,2,3,3-Pentachloropropane",C3H3Cl5,410,0.41
"1,2,3,4,7-Pentachlorodibenzo-P-Dioxin",C12H3Cl5O2,12000,12
"2,2',3,3',6-Pentachlorobiphenyl",C12H5Cl5,542,0.542
"2,2',3,4,4'-Pentachlorobiphenyl",C12H5Cl5,7830,7.83
"2,2',3,4,4'-Pcb",C12H4Cl6,1090,1.09
"2,2',3,4,5'-Pentachlorobiphenyl",C12H5Cl5,294,0.294
"2,2',3,4,6-Pentachlorobiphenyl",C12H5Cl5,120,0.12
"2,2',3,5,5'-Pentachlorobiphenyl",C12H5Cl5,4940,4.94
"2,2',3,5',6-Pentachlorobiphenyl",C12H5Cl5,211,0.211
"2,2',4,4',5-Pentachlorobiphenyl",C12H5Cl5,3660,3.66
"2,2',4,4',6-Pentachlorobiphenyl",C12H5Cl5,7140,7.14
"2,2',4,5,5'-Pentabromobiphenyl",C12H5Br5,10300,10.3
"2,2',4,6,6'-Pentachlorobiphenyl",C12H5Cl5,158,0.158
"2,3,3',4,4'-Pentachloro-1,1'-Biphenyl",C12H5Cl5,3400,3.4
"2',3,3',4,5-Pentachlorobiphenyl",C12H5Cl5,128,0.128
"2,3,3',4',6-Pentachlorobiphenyl",C12H5Cl5,7310,7.31
"2,3,4,4',5-Pentachlorobiphenyl",C12H5Cl5,160,0.16
"2',3,4,4',5'-Pcb",C12H5Cl5,134,0.134
"2,3',4,4',6-Pentachlorobiphenyl",C12H5Cl5,4020,4.02
"2,3',4,5,5'-Pentachlorobiphenyl",C12H5Cl5,111,0.111
"2,3,4,5,6-Pcb",C12H5Cl5,4010,4.01
"2,3,4,7,8-Pentachlorodibenzofuran",C12H3Cl5O,23500,23.5
"2,4,5,2',5'-Pentachlorobiphenyl",C12H5Cl5,154,0.154
"2,4,6,7(1h,3h)-Pteridinetetrone, 5,8-Dihydro-",C6H4N4O4,17.2,0.0172
"2,4,8,10-Tetraoxaspiro[5.5]undecane, 3,9-Bis(1-m",C13H24O4,188,0.188
"1,2,3,4,5,6-Hexachlorocyclohexane (mixture)",C6H6Cl6,8,0.008
"1,2,3,4,6,9-Hexachlorodibenzo-p-Dioxin",C12H2Cl6O2,1230000,1230
"1,2,3,4,7,8-Hexachlorodibenzofuran",C12H2Cl6O,2980000,2980
"1,2,3,4,7,8-Hexachlorodibenzo-p-Dioxin",C12H2Cl6O2,4400000,4400
"1,2,3,6,7,8-Hexahydropyrene",C16H16,22.9,0.0229
"1,8,15,22-Tetraazacyclooctacosane-2,9,16,23-Tetr",C24H46N4O4,700,0.7
"2,2',3,3',4,4'-Hexachlorobiphenyl",C12H4Cl6,35000,35
"2,2',3,3',4,6'-Hexachlorobiphenyl",C12H4Cl6,8080,8.08
"2,2',3,3',5,6-Hexachlorobiphenyl",C12H4Cl6,89900,89.9
"2,2',3,3',6,6'-Hexachlorobiphenyl",C12H4Cl6,4510,4.51
"2,2',3,4,4',5'-Hexachlorobiphenyl",C12H4Cl6,1500,1.5
"2,2',3,4,4',6-Hexachlorobiphenyl",C12H4Cl6,122,0.122
"2,2',3,4',5,5'-Hexachlorobiphenyl",C12H4Cl6,94900,94.9
"2,2',3,4',5',6-Pcb",C12H4Cl6,4240,4.24
"2,2',3,5,5',6-Hexachlorobiphenyl",C12H4Cl6,136,0.136
"2,2',4,4',6,6'-Pcb",C12H4Cl6,40800,40.8
"2,2',4,4',6,6'-Hexanitrodiphenylamine",C12H5N7O12,60,0.06
"2,3,3',4,4',5-Hexachlorobiphenyl",C12H4Cl6,5330,5.33
"2,3,3',4,4',6-Hexachlorobiphenyl",C12H4Cl6,8070,8.07
"2,3,3',5,5',6-Hexachlorobiphenyl",C12H4Cl6,1940,1.94
"2,3',4,4',5,5'-Hexachlorobiphenyl",C12H4Cl6,2230,2.23
"2,4,5,2',4',5'-Hexachlorobiphenyl",C12H4Cl6,95000,95
"3,3',4,4',5,5'-Pcb",C12H4Cl6,51000,51
"6',7',10,11-Tetramethoxyemetan",C29H40N2O4,984,0.984
"1,2,3,4,6,7,8-Heptachlorodibenzo-p-Dioxin",C12HCl7O2,2400000,2400
"1,2,5,6,9,10-Hexabromocyclododecane",C12H18Br6,8600,8.6
"1,3,4,6,7,9,9b-Heptaazaphenalene-2,5,8(1h,3h,6h)",C6H3N7O3,2400,2.4
"2,2',3,3',4,4',5-Heptachlorobiphenyl",C12H3Cl7,3470,3.47
"2,2',3,3',4,4',6-Heptachlorobiphenyl",C12H3Cl7,2170,2.17
"2,2',3,3',4,5,5'-Heptachlorobiphenyl",C12H3Cl7,31400,31.4
"2,2',3,3',4,5,6'-Heptachlorobiphenyl",C12H3Cl7,1020,1.02
"2,2',3,3',5,5',6-Heptachlorobiphenyl",C12H3Cl7,1020,1.02
"2,2',3,3',5,6,6'-Heptachlorobiphenyl",C12H3Cl7,4540,4.54
"2,2',3,4,4',5,5'-Heptachlorobiphenyl",C12H3Cl7,3850,3.85
"2,2',3,4,4',5',6-Heptachlorobiphenyl",C12H3Cl7,4900,4.9
"2,2',3,4',5,5',6-Heptachlorobiphenyl",C12H3Cl7,4510,4.51
"1,2,3,4,6,7,8,9-Octachlorodibenzo-p-Dioxin",C12Cl8O2,22900000,22900
"2,2',3,3',4,4',5,5'-Octachlorobiphenyl",C12H2Cl8,27200,27.2
"2,2',3,3',4,4',5,6'-Octachlorobiphenyl",C12H2Cl8,16300,16.3
"2,2',3,3',4,5,5',6'-Octachlorobiphenyl",C12H2Cl8,22000,22
"2,2',3,3',4,5',6,6'-Octachlorobiphenyl",C12H2Cl8,27100,27.1
"2,2',3,3',5,5',6,6'-Octachlorobiphenyl",C12H2Cl8,14700,14.7
"3,4,8,9,12,13-Hexaoxa-1,6-Diazabicyclo[4.4.4]tet",C6H12N2O6,100,0.1
"1,1,3,3,5,5,7,7,7-Nonamethyltetrasiloxanol",C9H28O4Si4,98.9,0.0989
"2,2',3,3',4,4',5,5',6-Nonachlorobiphenyl",C12HCl9,250000,250
"2,3,4,5,6,2',3',5',6'-Pcb",C12HCl9,180000,180
Zanamivir,C13H22N4O7,18000,18
Zinc Acetate,C4H6O4Zn,303000,303
Zinc Carbonate,CO3Zn,100,0.1
Zinc Formate,C2H2O4Zn,52000,52
Zinc Lactate,C6H10O6Zn,16700,16.7
Zinc Propionate,C6H10O4Zn,320000,320
Zinc Valerate,C10H18O4Zn,14300,14.3
Zineb,C4H6N2S4Zn,10,0.01
Zineb (also See Cas No. 12122-67-7),C4H6N2S4Zn,10,0.01
Ziram,C6H12N2S4Zn,65,0.065
Zolone,C12H16NO4PS2,2.15,0.00215
Zoxamide,C14H16Cl3NO2,68.1,0.0681
Zxi 8901,C26H22BrF2NO4,3560,3.56