Compound Name,Formula,Water Solubility (mg/L),Water Solubility (g/L)
"Malonamide, 2,2-Diethyl-N,n'-Dimethyl-",C9H18N2O2,200000,200
"Malonamide, 2,2-Dihydroxy-N,n'diphenyl-",C15H14N2O4,1000,1
Malonic Acid,C3H4O4,763000,763
"Malonic Acid, (o-Carboxybenzyl)-, 1,3-Diethyl Es",C15H18O6,450,0.45
Malononitrile,C3H2N2,133000,133
Maltose,C12H22O11,780000,780
M-Aminobenzonitrile,C7H6N2,8000,8
Mancozeb,C8H12MnN4S8Zn,6.2,0.0062
Mandipropamid,C23H22ClNO4,4.2,0.0042
Mannitol,C6H14O6,216000,216
Martius Yellow,C10H6N2O5,4000,4
Mb-599,C14H18O3,1,0.001
M-Bromobenzoic Acid,C7H5BrO2,402,0.402
M-Bromochlorobenzene,C6H4BrCl,118,0.118
M-Bromocinnamic Acid,C9H7BrO2,525,0.525
M-Bromofluorobenzene,C6H4BrF,378,0.378
M-Bromophenol,C6H5BrO,23000,23
M-Bromotoluene,C7H7Br,51.3,0.0513
M-Carboxyphenylacetic Acid,C9H8O4,3000,3
M-Chloroanisole,C7H7ClO,235,0.235
M-Chlorobenzoic Acid,C7H5ClO2,450,0.45
M-Chlorofluorobenzene,C6H4ClF,589,0.589
M-Chlorophenoxyacetic Acid,C8H7ClO3,1190,1.19
M-Chlorotoluene,C7H7Cl,38,0.038
Mcpa - Sodium Salt,C9H8ClNaO3,270000,270
Mcpa-Thioethyl,C11H13ClO2S,2.3,0.0023
Mcpb,C11H13ClO3,48,0.048
Mcpb-Ethyl,C13H17ClO3,10,0.01
Mcpp,C10H11ClO3,880,0.88
M-Cresol,C7H8O,22200,22.2
M-Cymene,C10H14,42.5,0.0425
M-Dibromobenzene,C6H4Br2,67.5,0.0675
M-Diethylbenzene,C10H14,24,0.024
M-Difluorobenzene,C6H4F2,1140,1.14
"M-Dioxane, 5-Methyl-5-Nitro-2-Propyl-",C8H15NO4,3000,3
Me (1-(4-Bromo)phenylsulfonyl) Cyclobutane Carbo,C12H13BrO4S,93.9,0.0939
Me (1-(4-Bromo)phenylsulfonyl) Cyclohexane Carbo,C14H17BrO4S,12,0.012
Me (1-(4-Bromo)phenylsulfonyl) Cyclopentane Carb,C13H15BrO4S,33.9,0.0339
Me (1-(4-Chloro)phenylsulfonyl) Cyclobutane Carb,C12H13ClO4S,289,0.289
Mebendazole,C16H13N3O3,71.3,0.0713
Mebutamate,C10H20N2O4,1000,1
Mecarbam,C10H20NO5PS2,1000,1
Mechlorethamine,C5H11Cl2N,12000,12
Meclofenamic A,C14H11Cl2NO2,30,0.03
Meconin,C10H10O4,2500,2.5
Mecoprop,C10H11ClO3,620,0.62
Mecoprop-p,C10H11ClO3,860,0.86
"Mecoprop, Potassium Salt",C10H10ClKO3,795000,795
Medinoterb Acetate,C13H16N2O6,10,0.01
Medrogestone,C23H32O2,1.82,0.00182
Mefenacet,C16H14N2O2S,4,0.004
Mefenamic Acid,C15H15NO2,20,0.02
Mefenpyr-Diethyl,C16H18Cl2N2O4,20,0.02
Mefluidide,C11H13F3N2O3S,180,0.18
Mefose,C11H8F17NO3S,81.3,0.0813
Megestrol Acetate,C24H32O4,2,0.002
Melatonin,C13H16N2O2,2000,2
Melibiose,C12H22O11,1000000,1000
Melilotoside,C15H18O8,10000,10
Menazon,C6H12N5O2PS2,240,0.24
Menthol,C10H20O,456,0.456
Menthol (l),C10H20O,490,0.49
(-)-Menthone,C10H18O,497,0.497
Mepanipyrim,C14H13N3,3.1,0.0031
Meparfynol Carbamate,C7H11NO2,16000,16
Mepazine,C19H22N2S,5.59,0.00559
Meperidine,C15H22ClNO2,6550,6.55
Mepiquat Chloride,C7H16ClN,500000,500
Meprobamate,C9H18N2O4,3300,3.3
Mepronil,C17H19NO2,12.7,0.0127
Merbromin,C20H8Br2HgNa2O6,20000,20
Mercaptoacetic Acid,C2H4O2S,1000000,1000
Mercarphon [iso],C7H14NO4PS2,3000,3
Mercuric Acetate,C4H6HgO4,250000,250
Mercuric Cyanide,C2HgN2,71400,71.4
Mercuric Sodium P-Phenolsulfonate,C12H8HgNa2O8S2,200000,200
Mercuric Succinimide,C8H8HgN2O4,50000,50
Mercuric Thiocyanate,C2HgN2S2,690,0.69
Mercury,Hg,600,0.6
Mercury Chloride,Cl2Hg,69000,69
Mercury Fulminate,C2HgN2O2,100,0.1
Mersalyl,C13H16HgNNaO6,500000,500
Mesityl Oxide,C6H10O,28900,28.9
Meso-Hydrobenzoin,C14H14O2,2500,2.5
Mesosulfuron Methyl,C17H21N5O9S2,483,0.483
Meso-Tartaric Acid,C4H6O6,560000,560
Mesotrione,C14H13NO7S,160,0.16
Mestranol,C21H26O2,30,0.03
Metacil,C5H6N2OS,533,0.533
Metalaxyl,C15H21NO4,8400,8.4
Metalaxyl-m,C15H21NO4,26000,26
Metaldehyde (tetramer),C8H16O4,222,0.222
Metamitron,C10H10N4O,1800,1.8
Metazachlor,C14H16ClN3O,430,0.43
Metconazole,C17H22ClN3O,15,0.015
Methabenzthiazuron,C10H11N3OS,59,0.059
Methacrifos,C7H13O5PS,400,0.4
Methacrifos [bsi:iso],C7H13O5PS,400,0.4
Methacrolein,C4H6O,50000,50
Methacrylic Acid,C4H6O2,89000,89
"Methacrylic Acid, I-Butyl Ester",C8H14O2,1300,1.3
"Methacrylic Acid, N-Butyl Ester",C8H14O2,800,0.8
Methacrylonitrile,C4H5N,25400,25.4
Methacycline,C22H22N2O8,7550,7.55
Methadone Hydrochloride,C21H28ClNO,120000,120
Methallyl Alcohol,C4H8O,194000,194
Methamidophos,C2H8NO2PS,1000000,1000
"Methanamine, 1-(trimethylsilyl)-",C4H13NSi,1790,1.79
"Methanamine, 1-(trimethylsilyl)-n-[(trimethylsil",C8H23NSi2,220,0.22
"Methanamine, N-Chloro-",CH4ClN,125000,125
Methane,CH4,22,0.022
Methane Arsonate,CH5AsO3,256000,256
"Methane, Bromotrinitro-",CBrN3O6,3900,3.9
"Methane, Chloronitro-",CH2ClNO2,50000,50
"Methanediamine, N,n,n',n'-Tetraethyl-",C9H22N2,100000,100
Methanedisulfonic Acid,CH4O6S2,2460000,2460
"Methanedisulfonic Acid, Chloro-",CH3ClO6S2,1000000,1000
"Methanesulfonamide, N-(methylsulfonyl)-",C2H7NO4S2,190000,190
"Methanesulfonamide, N-Phenyl-n-((1,1,2,2-Tetrach",C9H8Cl4FNO2S2,2.75,0.00275
Methanesulfonic Acid,CH4O3S,1000000,1000
Methanethiol,CH4S,15400,15.4
"Methane, Tris(methylsulfonyl)-",C4H10O6S3,135,0.135
Methanetrisulfonic Acid,CH4O9S3,836,0.836
"Methanetrisulfonic Acid, Chloro-",CH3ClO9S3,1000000,1000
Methapyrilene,C14H19N3S,601,0.601
Metharbital,C9H14N2O3,1980,1.98
Methasulfocarb,C9H11NO4S2,480,0.48
Methazolamide,C5H8N4O3S2,3500,3.5
Methazole,C9H6Cl2N2O3,1.5,0.0015
Methicillin Sodium,C17H19N2NaO6S,300000,300
Methidathion,C6H11N2O4PS3,187,0.187
Methimazole,C4H6N2S,200000,200
Methiocarb,C11H15NO2S,27,0.027
Methiodal Sodium,CH2INaO3S,700000,700
Methionine,C5H11NO2S,56600,56.6
Methomyl,C5H10N2O2S,58000,58
Methoprene,C19H34O3,1.4,0.0014
Methoproptryne,C11H21N5OS,320,0.32
Methotrimeprazine,C19H24N2OS,20,0.02
Methoxsalen,C12H8O4,47.6,0.0476
Methoxyacetic Acid,C3H6O3,1000000,1000
Methoxychlor,C16H15Cl3O2,10,0.01
Methoxyfenozide,C22H28N2O3,3.3,0.0033
Methoxyflurane,C3H4Cl2F2O,28300,28.3
Methoxy-Nonafluoroisobutane (hfe-7100),C5H3F9O,12,0.012
Methoxy Triethylene Glycol,C7H16O4,1000000,1000
Methyl (1-(4-Bromo)phenylsulfonyl) Cyclopropane,C11H11BrO4S,68.2,0.0682
Methyl (1-(4-Chloro)phenylsulfonyl) Cyclopropane,C11H11ClO4S,135,0.135
Methyl (1-(4-Methyl)phenylsulfonyl) Cyclopropane,C12H14O4S,335,0.335
Methyl (1-(4-Nitro)phenylsulfonyl) Cyclopropane,C11H11NO6S,119,0.119
Methyl (1-Phenylsulfonyl) Cyclobutane Carboxylat,C12H14O4S,254,0.254
Methyl (1-Phenylsulfonyl) Cyclohexane Carboxylat,C14H18O4S,399,0.399
Methyl (1-Phenylsulfonyl) Cyclopentane Carboxyla,C13H16O4S,756,0.756
Methyl (1-Phenylsulfonyl) Cyclopropane Carboxyla,C11H12O4S,1320,1.32
Methyl 3-Aminothiophene-2-Carboxylate,C6H7NO2S,2000,2
Methyl (4-Chlorophenyl)sulfonyl Acetate,C9H9ClO4S,1040,1.04
Methyl Acetate,C3H6O2,243000,243
Methyl Acetoacetate,C5H8O3,500000,500
Methyl Acrylate,C4H6O2,49400,49.4
Methylamine,CH5N,1080000,1080
Methyl Anthranilate,C8H9NO2,2850,2.85
Methylarsine,CH5As,85,0.085
Methyl Azinphos,C10H12N3O3PS2,20.9,0.0209
Methyl Benzenesulfonate,C7H8O3S,3120,3.12
Methyl Bromide,CH3Br,15200,15.2
Methylbutylamine,C5H13N,1000000,1000
Methylbutyrate,C5H10O2,15000,15
Methyl Chloride,CH3Cl,5320,5.32
Methyl Chloroacetate,C3H5ClO2,46000,46
Methylcyclohexanone,C21H36O3,21500,21.5
Methylcyclopentadienyl Manganese,C9H7MnO3,29,0.029
Methylcyclopentane,C6H12,42,0.042
Methyl Decanoate,C11H22O2,4.4,0.0044
"Methyldithiocarbamic Acid, Na Salt",C2H4NNaS2,722000,722
Methyldopa,C10H13NO4,10000,10
Methyldymron,C17H20N2O,120,0.12
Methylene Blue,C16H18ClN3S,43600,43.6
Methylene Iodide,CH2I2,833,0.833
"Methylene, (methyleneamino)-",C2H5N,91000,91
Methyl Ethyl Benzene,C27H36,74.5,0.0745
Methyleugenol,C11H14O2,500,0.5
Methylformamide,C2H5NO,1000000,1000
Methylformate,C2H4O2,230000,230
Methyl Gallate,C8H8O5,10600,10.6
Methylguanidine,C2H7N3,1780,1.78
Methyl Hexanoate,C7H14O2,1330,1.33
Methyl Hydrazine,CH6N2,1000000,1000
Methyl Iodide,CH3I,13800,13.8
Methyl Isobutyl Ether,C5H12O,11100,11.1
Methyl Isopropyl Ether,C4H10O,65000,65
Methyl Isothiocyanate,C2H3NS,7600,7.6
Methyl Maleate,C6H8O4,80000,80
Methyl Malonic Acid,C4H6O4,679000,679
Methylmecaptophos,C12H30O6P2S4,22,0.022
Methylmercury Dicyandiamide,C3H6HgN4,21700,21.7
Methyl Methacrylate,C5H8O2,15000,15
Methyl Naphthalenes (mixture Of Isomers),C11H10,25,0.025
Methyl N-Benzoglycine,C10H11NO3,17000,17
Methyl N-Butyl Ether,C5H12O,9010,9.01
Methyl Nonanoate,C10H20O2,22.9,0.0229
Methyl Octanoate,C9H18O2,64.4,0.0644
Methyl Orange,C14H14N3NaO3S,200,0.2
Methyl Oxalate,C4H6O4,60300,60.3
Methyl P-Aminobenzoate,C8H9NO2,3820,3.82
Methyl Pentynol,C6H10O,99000,99
Methyl Phenylsulfonyl Acetate,C9H10O4S,15500,15.5
Methylphosphonic Acid,CH5O3P,20000,20
Methylprednisolone,C22H30O5,120,0.12
Methyl Propionate,C4H8O2,62400,62.4
Methyl Propyl Ether,C4H10O,30500,30.5
Methyl Salicylate,C8H8O3,700,0.7
Methylsuccinic Acid,C5H8O4,666000,666
Methyl-Succinic Acid Diamide,C5H10N2O2,20000,20
Methyl-t-Amyl Ether,C6H14O,10700,10.7
Methyl T-Butyl Ether,C5H12O,51000,51
Methyltris(trimethylsiloxy)silane,C10H30O3Si4,1890,1.89
Methyl Valerate,C6H12O2,5060,5.06
Methylvinylether,C3H6O,15000,15
Metiazinic Acid,C15H13NO2S,31,0.031
Metobenzuron,C22H28N2O5,40,0.04
Metobromuron,C9H11BrN2O2,330,0.33
Metoclopramide,C14H22ClN3O2,200,0.2
Metofluthrin,C18H20F4O3,73,0.073
Metolachlor,C15H22ClNO2,488,0.488
Metolazone,C16H16ClN3O3S,60.3,0.0603
Metoprolol,C15H25NO3,16900,16.9
Metoquinone,C7H9NO,10000,10
Metosulam,C14H13Cl2N5O4S,200,0.2
Metoxuron,C10H13ClN2O2,678,0.678
Metribuzin,C8H14N4OS,1050,1.05
Metrizamide,C18H22I3N3O8,500000,500
Metronidazole,C6H9N3O3,9500,9.5
Metsulfuron-Methyl,C14H15N5O6S,9500,9.5
Mevinphos,C7H13O6P,600000,600
Mevinphos (trans),C7H13O6P,1000000,1000
Mexacarbate,C12H18N2O2,100,0.1
M-Fluorobenzoic Acid,C7H5FO2,1500,1.5
M-Fluorobenzyl Chloride,C7H6ClF,414,0.414
Mgk 264,C17H25NO2,15,0.015
M-Hydroxybenzoic Acid,C7H6O3,7250,7.25
M-Hydroxybenzyl Alcohol,C7H8O2,67000,67
M-Hydroxyphenylacetic Acid,C8H8O3,1000000,1000
Miglitol,C8H17NO5,1000000,1000
Milbemectin A3,C31H44O7,88,0.088
Milbemectin A4,C32H46O7,7.2,0.0072
Minocycline,C23H27N3O7,52000,52
Minoxidil,C9H15N5O,2200,2.2
Mirex,C10Cl12,850,0.85
Miristalkonium Chloride [ban:inn],C23H42ClN,10000,10
M-Methoxyphenol,C7H8O2,497,0.497
M-Methylbenzenesulfonamide,C7H9NO2S,7810,7.81
M-Methylbenzyl Alcohol,C8H10O,50000,50
M-Methylstyrene,C9H10,89,0.089
M-Nitroacetanilide,C8H8N2O3,917000,917
M-Nitroanisole,C7H7NO3,500,0.5
M-Nitrobenzaldehyde,C7H5NO3,1630,1.63
"M-Nitrobenzenesulfonic Acid, Sodium Salt",C6H4NNaO5S,277000,277
M-Nitrobenzoic Acid,C7H5NO4,3580,3.58
M-Nitrobenzyl Alcohol,C7H7NO3,590,0.59
Molinate,C9H17NOS,970,0.97
Monalide (potablan),C13H18ClNO,22.8,0.0228
Monolinuron,C9H11ClN2O2,930,0.93
Monosodium L-Glutamate,C5H8NNaO4,385000,385
Monotropitoside,C19H26O12,80900,80.9
Monuron,C9H11ClN2O,230,0.23
Morin,C15H10O7,250,0.25
"Morphinan-3,6-Diol, 7,8-Didehydro-4,5-Epoxy-17-m",C17H19NO3,200,0.2
Morphine,C17H19NO3,149,0.149
Morphine Acetate,C19H23NO5,449000,449
Morphine Sulfate,C34H40N2O10S,64500,64.5
Morpholine,C4H9NO,1000000,1000
"Morpholine, 4-(2-Hydroxybenzoyl)-",C11H13NO3,4100,4.1
"Morpholine, 4,4',4''-Phosphinothioylidynetris-",C12H24N3O3PS,3220,3.22
"Morpholine, 4,4',4''-Phosphinylidynetris-",C12H24N3O4P,607000,607
"Morpholine, 4-[(benzoyloxy)acetyl]-",C13H15NO4,4200,4.2
Msma,CH4AsNaO3,580000,580
M-Terphenyl,C18H14,1.51,0.00151
M-Toluic Acid,C8H8O2,980,0.98
M-Toluidine,C7H9N,15000,15
Mtt Bromide,C18H16BrN5S,10000,10
Musk Ketone,C14H18N2O5,1.9,0.0019
M-Xylene,C8H10,161,0.161
Myclobutanil,C14H15ClN4,142,0.142
Mycophenolate Mofetil,C23H31NO7,43,0.043
Myristyltrimethylammonium Bromide,C17H38BrN,200000,200
N1-(4-So2nh2-Ph)sulfanilamide,C12H13N3O4S2,570,0.57
N1-(5-Br-2-Pyridyl)sulfanilamide,C11H10BrN3O2S,38,0.038
N1-(6-Cl-3-Pyridyl)sulfanilamide,C11H10ClN3O2S,180,0.18
N1-Methyl-N1-(2-Pyridyl)sulfanilamide,C12H13N3O2S,1360,1.36
N-1-Naphthylphthalmic Acid,C18H12NNaO3,231000,231
N-1-Napthylthiourea,C11H10N2S,600,0.6
N1-Phenylsulfanilide,C12H12N2O2S,7000,7
N - (2 - Chloroethyl) - N - Nitroso - N' - [2 -,C10H13ClFN5O5,4000,4
N-(3-Chlorallyl) Hexaminium Chloride,C9H16Cl2N4,304000,304
Nabam,C4H6N2Na2S4,200000,200
N-Acetyl-Dl-Tryptophan,C13H14N2O3,1200,1.2
"N-Acetyl-l-Phenylalanine, Ethyl Ester",C13H17NO3,4130,4.13
Nadolol,C17H27NO4,8330,8.33
N--Alanine,C6H10N2O2,140000,140
Naled,C4H7Br2Cl2O4P,1.5,0.0015
Nalidixic Acid,C12H12N2O3,100,0.1
N-(aminocarbonyl)-2-(1-Methylethyl)4-Pentenamide,C9H16N2O2,330,0.33
N-(aminocarbonyl)glycine,C3H6N2O3,31000,31
N-Amyl Acetate,C7H14O2,1700,1.7
Nandrolone,C18H26O2,3090,3.09
Naphazoline Hydrochloride [jan],C14H15ClN2,400000,400
Naphthalene,C10H8,31,0.031
"Naphthalene-1,3-Diol",C10H8O2,1800,1.8
"Naphthalene, 1,4,5-Trinitro-",C10H5N3O6,40,0.04
"Naphthalene, 1,5-Dinitro-",C10H6N2O4,58,0.058
"Naphthalene, 1,8-Dinitro-",C10H6N2O4,34,0.034
"Naphthalene, 1-Methoxy-",C11H10O,10,0.01
"Naphthalene, 2-(2-Methylpropoxy)-",C14H16O,1.23,0.00123
Naphthalene-2-Sulfonic Acid,C10H8O3S,60000,60
Naphthaleneacetic Acid,C12H10O2,420,0.42
"Naphtho[1,2-C]furan-1(3h)-One",C12H8O2,91,0.091
"Naphtho[2,1-B]furan-2(1)h-One",C12H8O2,361,0.361
"Naphtho[2,3-C]furan-1(3h)-One, 3,3-Dimethyl-",C14H12O2,220,0.22
Naproanilide,C19H17NO2,75,0.075
Naprosyn,C14H14O3,15.9,0.0159
Narceine,C23H27NO8,780,0.78
Narcotine,C22H23NO7,44,0.044
Naringine,C27H32O14,1000,1
N-Benzoylbenzamide,C14H11NO2,1200,1.2
N-Benzyl-3-Chloropropanamide,C10H12ClNO,100,0.1
N-Benzyl-n-Methylnitrosoamine,C8H10N2O,4510,4.51
N-Butane,C4H10,61.2,0.0612
N-Butyl Acetate,C6H12O2,8400,8.4
N-Butylamine,C4H11N,1000000,1000
N-Butylbenzene,C10H14,11.8,0.0118
N-Butylbutyrate,C8H16O2,500,0.5
N-Butylformate,C5H10O2,7560,7.56
N-Butyl Iodide,C4H9I,202,0.202
N-Butylmercuric Chloride,C4H9ClHg,1.4,0.0014
N-Butyl Mercury Cyanide,C5H9HgN,22000,22
N-Butyl Propionate,C7H14O2,1500,1.5
N-Carbamoyl-l-Isoleucine,C7H14N2O3,1400,1.4
N-Carboxymethyl-Dl-Tyrosine,C11H13NO5,604,0.604
N-(cyclohexylthio)phthalimide,C14H15NO2S,22,0.022
N-Decane,C10H22,520,0.52
N-Decylamine,C10H23N,550,0.55
N-Dodecylamine,C12H27N,78,0.078
Nebularine,C10H12N4O4,100000,100
Neburon,C12H16Cl2N2O,4.8,0.0048
Neostigmine Bromide,C12H19BrN2O2,500000,500
N-(ethylaminomethyl)benzamide,C10H14N2O,150000,150
N-Ethylaniline,C8H11N,2410,2.41
"N-Ethylethanamine, Hydrochloride",C4H12ClN,1000000,1000
N-Ethyl-N-Nitrosourea,C3H7N3O2,13000,13
Neutral Red,C15H17ClN4,40000,40
N-Heptane,C7H16,3.4,0.0034
N-Hexadecane,C16H34,90000,90
N-Hexane,C6H14,9.5,0.0095
N-Hexyl Acetate,C8H16O2,511,0.511
N-Hexylamine,C6H15N,12000,12
N-Hexylbenzene,C12H18,90.2,0.0902
N-Hexyl-Lactamide,C9H19NO2,19500,19.5
N-Hexyl Nicotinoate,C12H17NO2,460,0.46
N-(hydroxymethyl)acrylamide,C4H7NO2,653000,653
Nickel Acetate,C4H6NiO4,166000,166
Niclosamide,C13H8Cl2N2O4,1.6,0.0016
Niclosamide Ethanolamine Salt,C15H15Cl2N3O5,100,0.1
Nicosulfuron,C15H18N6O6S,7300,7.3
Nicotinamide,C6H6N2O,500000,500
"Nicotinamide, N-(6-Methoxy-8-Quinolyl)-",C16H13N3O2,10,0.01
Nicotinanilide,C12H10N2O,160,0.16
Nicotinic Acid,C6H5NO2,18000,18
"Nicotinic Acid, Butyl Ester",C10H13NO2,2610,2.61
"Nicotinic Acid, Ethyl Ester",C8H9NO2,56000,56
"Nicotinic Acid, Methyl Ester",C7H7NO2,47600,47.6
"Nicotinic Acid, Propyl Ester",C9H11NO2,9500,9.5
Nidroxyzone,C8H10N4O5,500,0.5
Nifedipine,C17H18N2O6,5.8,0.0058
Niflumic Acid,C13H9F3N2O2,19,0.019
Nifuradene,C8H8N4O4,98.5,0.0985
Nifuroxime,C5H4N2O4,1000,1
Nihydrazone,C7H7N3O4,500,0.5
Nikethamide,C10H14N2O,1000000,1000
Nile Blue,C20H20ClN3O,2000,2
Nile Blue Sulfate,C40H40N6O6S,20000,20
Niridazole,C6H6N4O3S,130,0.13
N-Isobutylmorpholine,C8H17NO,28000,28
Nitenpyram,C11H15ClN4O2,840000,840
Nithiazide,C6H8N4O3S,300,0.3
Nitralin,C13H19N3O6S,60,0.06
Nitrapyrin,C6H3Cl4N,72,0.072
"Nitric Acid, Thallium (1+) Salt",HNO3Tl,95500,95.5
Nitrilotriacetic Acid,C6H9NO6,59300,59.3
(nitrilotris(methylene))triphosphonic Acid,C3H12NO9P3,1000000,1000
Nitrobenzene,C6H5NO2,2090,2.09
Nitroblue Tetrazolium,C34H29N9O4,10000,10
Nitroethane,C2H5NO2,48000,48
Nitrofen,C12H7Cl2NO3,1,0.001
Nitrofurantoin,C8H6N4O5,79.5,0.0795
Nitrofurazone,C6H6N4O4,210,0.21
Nitrogen,N2,18100,18.1
Nitroguanidine,CH4N4O2,4400,4.4
Nitromethane,CH3NO2,111000,111
Nitrosoguanidine,CH4N4O,930,0.93
Nitrothal-Isopropyl,C14H17NO6,2.7,0.0027
N--L-Leucine,C9H16N2O2,4400,4.4
"N-Me-3,5-Dimethylphenyl Carbamate",C10H13NO2,470,0.47
"N-Me Carbamate,3-Me-4-Mes Phenyl",C10H13NO2S,24,0.024
N-Methylacetamide,C3H7NO,1000000,1000
N-Methylacetanilide,C9H11NO,16700,16.7
N-Methylaniline,C7H9N,5620,5.62
N-Methylbenzylamine,C8H11N,1000000,1000
N-Methyl Butylcarbamate,C6H13NO2,4760,4.76
"N-Methylcarbamic Acid, Et Ester",C4H9NO2,690000,690
N-Methyldiethanolamine,C5H13NO2,1000000,1000
N-Methyl Glycine,C3H7NO2,300000,300
"N-Methylmethanamine, Hydrochloride",C2H8ClN,1000000,1000
N-Methylmorpholine,C5H11NO,1000000,1000
N-Methyl-M-Tolylcarbamate,C9H11NO2,2600,2.6
N-Methyl-N-Nitrosoacetamide,C3H6N2O2,17400,17.4
N-Methyl-N-Nitrosoethamine,C3H8N2O,300000,300
N-Methyl-Norleucine,C7H15NO2,102000,102
N-Methyl O-(3-Isopropylphenyl)carbamate,C11H15NO2,85,0.085
N-Methyl O-Sec-Butyl Phenyl Carbamate,C12H17NO2,420,0.42
N-Methylpiperidine,C6H13N,167000,167
N-Methylpyrrolidone,C5H9NO,1000000,1000
"N,n,4-Trimethylaniline",C9H13N,650,0.65
"N,n'bis--Alanine",C9H13N3O2,130000,130
"N,n'-Bis-Phenylacetyl-Cystine",C22H24N2O6S2,7000,7
"N,n-Diethyl-2-(1-Naphthalenyloxy)propanamide",C17H21NO2,73,0.073
"N,n-Diethylaniline",C10H15N,140,0.14
"N,n-Diethylformamide",C5H11NO,1000000,1000
"N,n-Diethyl Succinamic Acid",C8H15NO3,27900,27.9
"N,n-Diethylthiourea",C5H12N2S,42000,42
"N,n-Dime-n-g-Phenylpropylamine",C11H17N,3600,3.6
"N,n'-Dimethylacetamide",C4H9NO,1000000,1000
"N,n-Dimethylaniline",C8H11N,1450,1.45
"N,n-Dimethylbenzylamine",C9H13N,12000,12
"N,n-Dimethyldodecylamine Oxide",C14H31NO,190000,190
"N,n'-Dimethylformamide",C3H7NO,1000000,1000
"N,n-Dimethylisopropylamine",C5H13N,1000000,1000
"N,n'-Dimethyloxalamide",C4H8N2O2,410000,410
"N,n-Dimethylthiourea",C3H8N2S,1000000,1000
"N,n'-Diphenylguanidine",C13H13N3,1000,1
"N,n-Hydrazinediacetic Acid",C4H8N2O4,2800,2.8
N-Nitromorpholine,C4H8N2O3,40000,40
N-Nitrosodibutylamine,C8H18N2O,1270,1.27
N-Nitrosodiethanolamine,C4H10N2O3,1000000,1000
N-Nitrosodiethylamine,C4H10N2O,106000,106
N-Nitrosodimethylamine,C2H6N2O,1000000,1000
N-Nitrosodipropylamine,C6H14N2O,13000,13
N-Nitrosoethyl-N-Butylamine,C6H14N2O,12000,12
N-Nitrosohexamethyleneimine,C6H12N2O,12800,12.8
N-Nitrosomethylbutylamine,C5H12N2O,23200,23.2
N-Nitrosomethylvinylamine,C3H6N2O,30000,30
N-Nitrosomorpholine,C4H8N2O2,1000000,1000
N-Nitrosopiperidine,C5H10N2O,76500,76.5
N-Nitrosopyrrolidine,C4H8N2O,1000000,1000
N-Nitrososarcosine,C3H6N2O3,1000000,1000
N-Nonane,C9H20,22,0.022
N-Nonylphenol,C15H24O,5000,5
N-Octylamine,C8H19N,200,0.2
"Nonachloro-1,1'-Biphenyl",C12HCl9,11000,11
Nonanal,C9H18O,96,0.096
Nonanedioc Acid,C9H16O4,2400,2.4
"Nonanedioic Acid, 2,2-Diphenyl-",C21H24O4,40.9,0.0409
Nonanoic Acid,C9H18O2,284,0.284
"Nonanoic Acid, 2,3-Dihydroxy-",C9H18O4,5400,5.4
"Nonanoic Acid, 9-Oxo-",C9H16O3,19000,19
Nonanonitrile,C9H17N,70,0.07
Nonylphenol (isomer Mixture),C15H24O,4.9,0.0049
Norazine,C7H12ClN5,260,0.26
Norbormide,C33H25N3O3,60,0.06
Norcamphor,C7H10O,1930,1.93
Norea,C13H22N2O,150,0.15
Norethindrone,C20H26O2,7.04,0.00704
Norethindrone Acetate,C22H28O3,5.35,0.00535
Norfloxacin,C16H18FN3O3,190,0.19
Norflurazon,C12H9ClF3N3O,33.7,0.0337
Norgestrel,C21H28O2,1.73,0.00173
Norleucine,C6H13NO2,11400,11.4
"Norleucine, N,n-Dimethyl-",C8H17NO2,495000,495
Nornicotine,C9H12N2,1000000,1000
Norvaline,C5H11NO2,100000,100
Noscapine,C22H23NO7,300,0.3
Novaluron,C17H9ClF8N2O4,531,0.531
Novantrone,C22H30Cl2N4O6,7500,7.5
N-Oxidenicotinic Acid,C6H5NO3,7000,7
Noxythiolin,C3H8N2OS,100000,100
Npa (naptalam),C18H13NO3,200,0.2
N-Pentadecane,C15H32,760000,760
N-Pentane,C5H12,38,0.038
N-Pentylamine,C5H13N,1000000,1000
"N-Phenyl-2,5-Imidazolidione",C9H8N2O2,9520,9.52
N-Phenylphthalamic Acid,C14H11NO3,20,0.02
N-Phenylthiourea,C7H8N2S,2470,2.47
N-Propyl Acetate,C5H10O2,18900,18.9
N-Propylbenzene,C9H12,52.2,0.0522
N-Propylbutyrate,C7H14O2,1620,1.62
N-Propylpropionate,C6H12O2,5300,5.3
N-Tert-Butyl-2-Benzothiazolesulfenamide,C11H14N2S2,30,0.03
N-Tridecane,C13H28,4700,4.7
N-Undecane,C11H24,4400,4.4
N--Valine,C8H14N2O2,12800,12.8
Nystatin,C18H28O2,360,0.36
"O1,o3-Diisopropyl-Glycerol",C9H20O3,200000,200
"O-(4-Hydroxy-3-Iodophenyl)-3,5-Diiodo-l-Tyrosine",C15H12I3NO4,3.96,0.00396
O-Aminoazotoluene,C14H15N3,7,0.007
O-Aminophenol,C6H7NO,20000,20
O-Anilinesulfonic Acid,C6H7NO3S,10600,10.6
O-Benzyl Carbamate,C8H9NO2,68000,68
O-Bromobenzoic Acid,C7H5BrO2,1860,1.86