Compound Name,Formula,Water Solubility (mg/L),Water Solubility (g/L)
"Coumarin, 4-(diethylcarbamoyl)-",C14H15NO3,2000,2
Creatine,C4H9N3O2,13300,13.3
Creatinine,C4H7N3O,80100,80.1
Cresyl Diphenyl Phosphate,C19H17O4P,2.4,0.0024
Crotonaldehyde,C4H6O,181000,181
Crotonic Acid,C4H6O2,94000,94
Crotononitrile,C4H5N,25000,25
Crotoxyphos,C14H19O6P,1000,1
Crufomate,C12H19ClNO3P,200,0.2
Crystal Violet (basic Violet 3),C25H30ClN3,4000,4
Cumene,C9H12,61.3,0.0613
Cumene Hydroperoxide,C9H12O2,13900,13.9
Cumic Acid,C10H12O2,151,0.151
Cumylphenyl Diphenyl Phosphate,C27H25O4P,630,0.63
Cupric Gluconate,C12H22CuO14,300000,300
Cyanamide,CH2N2,780000,780
Cyanazine,C9H13ClN6,170,0.17
Cyano-Acetic Acid Benzylamide,C5H8N2O,1500,1.5
Cyanofenphos,C15H14NO2PS,60,0.06
Cyanogen Chloride,CClN,60000,60
Cyanophos,C9H10NO3PS,46,0.046
Cyanthoate,C10H19N2O4PS,70000,70
Cyazofamid,C13H13ClN4O2S,10.7,0.0107
Cyclanilide,C11H9Cl2NO3,37,0.037
Cyclizine,C18H22N2,1000,1
Cycloate,C11H21NOS,85,0.085
Cyclobarbital,C12H16N2O3,1600,1.6
"Cyclobutaneacetic Acid, 3-Acetyl-2,2-Dimethyl-",C10H16O3,49000,49
"Cyclobutanecarboxylic Acid, 3-[1-[(aminocarbonyl",C10H17N3O3,1000,1
"Cyclobutanecarboxylic Acid, 3-Acetyl-2,2-Dimethy",C9H14O3,14000,14
Cyclocumarol,C20H18O4,10000,10
Cycloheptane,C7H14,30,0.03
Cycloheptatriene,C7H8,620,0.62
Cycloheptene,C7H12,66,0.066
Cyclohexanamine,C6H13N,1000000,1000
Cyclohexane,C6H12,55,0.055
"Cyclohexane-1,3-Dione, 2-Nitro-5-Phenyl-",C12H11NO4,5000,5
"Cyclohexaneacetic Acid, .alpha.-Hydroxy-",C8H14O3,7000,7
"Cyclohexanecarboxamide, 4-Methyl-, Trans-",C8H15NO,950,0.95
Cyclohexanecarboxylic Acid,C7H12O2,4600,4.6
"Cyclohexanecarboxylic Acid, 1-Hydroxy-2-Methyl-",C8H14O3,20000,20
"Cyclohexanepropanoic Acid, .alpha.-Amino-4-Hydro",C9H17NO3,83000,83
Cyclohexanol,C6H12O,42000,42
"Cyclohexanol, 1-Ethynyl-, Carbamate",C9H13NO2,2500,2.5
"Cyclohexanol, 4-(1,1-Dimethylethyl)-",C10H20O,100,0.1
"Cyclohexanol, 5-Methyl-2-(1-Methylethyl)-",C10H20O,420,0.42
Cyclohexanone,C6H10O,25000,25
"Cyclohexanone, 2-(1-Cyclohexen-1-Yl)-",C12H18O,300,0.3
"Cyclohexanone, 2-Methyl-5-(1-Methylethenyl)-, (2",C10H16O,1000,1
Cyclohexanone Oxime,C6H11NO,18000,18
Cyclohexene,C6H10,213,0.213
Cycloheximide,C15H23NO4,21000,21
Cyclohexylacetic Acid,C8H14O2,2880,2.88
Cyclohexylmercapto-Acetic Acid,C8H14O2S,8000,8
Cyclohexyl Methylphosphonofluoridate,C7H14FO2P,3700,3.7
Cycloleucine,C6H11NO2,50000,50
Cyclooctane,C8H16,7.9,0.0079
"Cyclopenta[c]pyran-4-Carboxylic Acid, 1-(?-d-Glu",C17H24O10,211000,211
Cyclopentadiene,C5H6,1800,1.8
Cyclopentane,C5H10,156,0.156
"Cyclopentaneacetic Acid, 3-Carboxy-.alpha.,.alph",C11H18O4,6670,6.67
"Cyclopentaneacetic Acid, 3-Oxo-2-Pentyl-, Methyl",C13H22O3,280,0.28
"Cyclopentanecarbonitrile, 1-Methyl-2-Oxo-",C7H9NO,1000000,1000
"Cyclopentanecarbonitrile, 2-Oxo-",C6H7NO,48000,48
"Cyclopentanecarboxylic Acid, 1,2,2,3-Tetramethyl",C10H18O2,160,0.16
"Cyclopentane, Pentyl-",C10H20,11.5,0.0115
Cyclopentene,C5H8,535,0.535
Cyclopentylproprionic Acid,C8H14O2,2420,2.42
Cyclophosphamide,C7H15Cl2N2O2P,40000,40
Cyclopropane,C3H6,381,0.381
"Cyclopropane, Ethoxy-",C5H10O,19700,19.7
"Cyclopropane, Methoxy-",C4H8O,55000,55
Cyclopropyl Vinyl Ether,C5H8O,6680,6.68
Cycloprothrin,C26H21Cl2NO4,910,0.91
Cyclosulfamuron,C17H19N5O6S,17,0.017
"Cyclotetrasiloxane, 2,4,6,8-Tetraethenyl-2,4,6,8",C12H24O4Si4,8040,8.04
Cycloxydim,C17H27NO3S,40,0.04
Cycluron,C11H22N2O,1200,1.2
Cycrimine Hydrochloride,C19H30ClNO,6000,6
Cyfluthrin,C22H18Cl2FNO3,3000,3
Cyhalofop-Butyl,C20H20FNO4,44,0.044
Cyhalothrin,C23H19ClF3NO3,5000,5
Cymoxanil,C7H10N4O3,890,0.89
Cyolane,C7H14NO3PS2,650,0.65
Cypermethrin,C22H19Cl2NO3,4000,4
Cyphenothrin,C24H25NO3,100,0.1
Cyprazine,C9H14ClN5,69,0.069
Cyproconazole,C15H18ClN3O,140,0.14
Cyprofuram,C14H14ClNO3,574,0.574
Cyromazine,C6H10N6,13000,13
Cysteine,C3H7NO2S,277000,277
Cystine,C6H12N2O4S2,190,0.19
"Cytidine, 2',3'-Dideoxy-",C9H13N3O3,76400,76.4
Cytisine,C11H14N2O,439000,439
Cytosine,C4H5N3O,8000,8
D2341 (bifenazate),C17H20N2O3,3.76,0.00376
Daimuron,C17H20N2O,1.2,0.0012
D-Alanine,C3H7NO2,165000,165
Dalapon,C3H4Cl2O2,502000,502
Dalapon (sodium Salt),C3H3Cl2NaO2,900000,900
"D-Alloisoleucine, N-Acetyl-",C8H15NO3,44400,44.4
Daminozide,C6H12N2O3,100000,100
D&c Black No. 1,C22H14N6Na2O9S2,10,0.01
D & C Red No. 22,C20H6Br4Na2O5,40000,40
D-Borneol,C10H18O,740,0.74
"D-Chiro-Inositol, 3-o-(2-Amino-4-((carboxyiminom",C14H25N3O9,125000,125
"Dcip (2,2'-Oxybis-1-Chloropropane)",C6H12Cl2O,1700,1.7
"D-Cysteine, L-Leucyl-, (2.fwdarw.2')-Disulfide",C18H34N4O6S2,143000,143
"D-Cysteine, S-(2-Amino-2-Carboxyethyl)-, (r)-",C6H12N2O4S,220,0.22
D-Cystine,C6H12N2O4S2,100,0.1
De 71,C12H5Br5O,2400,2.4
Decabromodiphenyl Ether,C12Br10O,10000,10
Decachlorobiphenyl,C12Cl10,7430000,7430
Decahydronaphthalene,C10H18,88.9,0.0889
Decamethylcyclopentasiloxane,C10H30O5Si5,170,0.17
Decamethyltetrasiloxane,C10H30O3Si4,6740,6.74
Decanebis(thioic) Acid,C10H18O2S2,200,0.2
Decanedioic Acid,C10H18O4,1000,1
"Decanedioic Acid, 2,2-Diphenyl-",C22H26O4,40.8,0.0408
"Decanedioic Acid, Bis(2-Butoxyethyl) Ester",C22H42O6,60,0.06
"Decanedioic Acid, Bis(2-Ethoxyethyl) Ester",C18H34O6,220,0.22
"Decanedioic Acid, Dihexyl Ester",C22H42O4,10,0.01
"Decanedioic Acid, Dimethyl Ester",C12H22O4,120,0.12
Decanoic Acid,C10H20O2,61.8,0.0618
"Decanoic Acid, 2,3-Dihydroxy-",C10H20O4,900,0.9
"Decanoic Acid, Nonadecafluoro-",C10HF19O2,5130,5.13
Dechlorane Plus,C18H12Cl12,440000000,440000
Decylpropanedioic Acid,C13H24O4,25,0.025
Deferasirox,C21H15N3O4,400,0.4
Deferoxamine,C25H48N6O8,12000,12
Dehydroabietic Acid,C20H28O2,6.6,0.0066
Dehydroacetic Acid,C8H8O4,690,0.69
Dehydrocholic Acid,C24H34O5,180,0.18
Delmadinone Acetate,C23H27ClO4,4.57,0.00457
Delta(1)-Thc,C21H30O2,2.8,0.0028
Delta-Hexachlorocyclohexane,C6H6Cl6,31.4,0.0314
Deltamethrin,C22H19Br2NO3,2000,2
Demeclocycline,C21H21ClN2O8,1520,1.52
Demephion,C5H13O3PS2,300,0.3
Demerol,C15H21NO2,3220,3.22
Demeton,C6H15O4PS,330,0.33
Demeton-o,C8H19O3PS2,60,0.06
Demeton-s,C8H19O3PS2,2000,2
Deoxycholic Acid,C24H40O4,43.6,0.0436
Deoxycorticosterone,C21H30O3,59.5,0.0595
Deoxycorticosterone Acetate,C23H32O4,8.73,0.00873
Dequalinium Chloride,C30H40Cl2N4,5000,5
Des,C18H20O2,12,0.012
Desethylatrazine,C6H10ClN5,3200,3.2
Desipramine,C18H22N2,58.6,0.0586
Desisopropylatrazine,C5H8ClN5,670,0.67
Desmedipham,C16H16N2O4,7,0.007
Desmetryne,C8H15N5S,580,0.58
Dexamethasone,C22H29FO5,89,0.089
Dexamethasone-21-Acetate,C24H31FO6,5.47,0.00547
Dexpanthenol,C9H19NO4,1000000,1000
Dexrazoxane,C11H16N4O4,11000,11
D-Fenchone,C10H16O,2150,2.15
"D-Galactose, (aminocarbonyl)hydrazone",C7H15N3O6,89000,89
"D-Glucaric Acid, Di-.gamma.-Lactone",C6H6O6,55600,55.6
"D-Glucitol, 1,4:3,6-Dianhydro-, Dinitrate",C6H8N2O8,550,0.55
"D-Glucitol, 1-Deoxy-1-(methylamino)-",C7H17NO5,500000,500
"D-Glucofuranose, Pentaacetate",C16H22O11,850,0.85
"D-Gluconamide, N-Heptyl-",C13H27NO6,3500,3.5
"D-Gluconamide, N-Nonyl-",C15H31NO6,100,0.1
D-Gluconic Acid,C6H12O7,316000,316
"D-Gluconic Acid, 2,4:3,5-Di-o-Methylene-",C8H12O7,8500,8.5
"D-Gluconic Acid, 2-Amino-2-Deoxy-",C6H13NO6,27000,27
"D-Gluconic Acid, .delta.-Lactone",C6H10O6,590000,590
"D-Gluconic Acid, Hydrazide",C6H14N2O6,66700,66.7
"D-Glucose, 1-(carbamoylimino)-1-Deoxy-",C7H14N2O6,350000,350
"D-Glucose, 2,3,4,5,6-Pentaacetate",C16H22O11,1500,1.5
"D-Glucose, 2,3,4,6-Tetraacetate",C14H20O10,15400,15.4
"D-Glucose, 2-Deoxy-2-[(ethoxycarbonyl)amino]-",C9H17NO7,327000,327
"D-Glucose, 2-Deoxy-2-[[(phenylmethoxy)carbonyl]a",C14H19NO7,5700,5.7
"D-Glucose, (aminocarbonyl)hydrazone",C7H15N3O6,23500,23.5
"D-Glucuronic Acid, .gamma.-Lactone",C6H8O6,257000,257
D-Glutamic Acid,C5H9NO4,8880,8.88
"D-Glutamine, N2-L-Leucyl-",C11H21N3O4,7000,7
D-Glycero-d-Gulo-Heptitol,C7H16O7,234000,234
"D-Glycero-d-Gulo-Heptonic Acid, .gamma.-Lactone",C7H12O7,450000,450
"D-Glycero-d-Gulo-Heptopyranoside, Phenyl, ?-",C13H18O7,8000,8
D-Glycero-d-Gulo-Heptose,C7H14O7,100000,100
"D-Glycero-d-Ido-Heptonic Acid, .gamma.-Lactone",C7H12O7,589000,589
D-Glycero-d-Manno-Heptitol,C7H16O7,222000,222
D-Glycero-l-Gulo-Heptitol,C7H16O7,500000,500
Di-1-Hexanesulfonamide,C12H27NO4S2,2000,2
Di-2-Chloroethyl Sulfide,C4H8Cl2S,690,0.69
Di-2-Ethylhexyl Adipate,C22H42O4,3200,3.2
Diacetylene,C4H2,9450,9.45
Diafenthiuron,C23H32N2OS,600,0.6
Dialifor,C14H17ClNO4PS2,18,0.018
Diallate,C10H17Cl2NOS,14,0.014
Diallylamine,C6H11N,86000,86
Diallylphthalate,C14H14O4,182,0.182
Diamyl Sodium Sulfosuccinate,C14H25NaO7S,392000,392
Diatrizoate Sodium,C11H8I3N2NaO4,600000,600
Diatrizoic Acid,C11H9I3N2O4,500000,500
Diazenedicarboxamide,C2H4N4O2,35,0.035
Diazepam,C16H13ClN2O,66,0.066
Diazinon,C12H21N2O3PS,60,0.06
"Dibenz(a,h)acridine",C21H13N,15.9,0.0159
"Dibenz(a,h)anthracene",C22H14,2490,2.49
"Dibenz(a,j)anthracene",C22H14,1030,1.03
Dibenzofuran,C12H8O,3.1,0.0031
"Dibenzofuran, 1,2,3,4,6,7,8-Heptachloro-",C12HCl7O,1350000,1350
"Dibenzofuran, 2,3,7,8-Tetrabromo-",C12H4Br4O,700,0.7
Dibenzo-p-Dioxin,C12H8O2,90.1,0.0901
Dibenzothiophene,C12H8S,1.47,0.00147
Dibenzylammonium Chloride,C14H16ClN,21200,21.2
Dibenzyl Ether,C14H14O,40,0.04
Dibromobenzene,C18H12Br6,26.4,0.0264
Dibromochloromethane,CHBr2Cl,2700,2.7
Dibromoethane,C4H8Br4,12400,12.4
Dibromomethane,CH2Br2,11900,11.9
Dibucaine,C20H29N3O2,42,0.042
Dibutylamine,C8H19N,3500,3.5
Dibutyl Butylphosphonate,C12H27O3P,500,0.5
Dibutyl Dichloro Tin,C8H18Cl2Sn,92,0.092
Dibutyl Maleate,C12H20O4,500,0.5
Dibutyl Methylphosphonate,C9H21O3P,8000,8
Dibutyl Phenyl Phosphate,C14H23O4P,96,0.096
Dibutyl Phosphite,C8H19O3P,7300,7.3
Dibutyl Phthalate,C16H22O4,11.2,0.0112
Dibutyl Sebacate,C18H34O4,40,0.04
Dibutyltin Dilaurate,C32H64O4Sn,3,0.003
Dicamba,C8H6Cl2O3,8310,8.31
Dicapthon,C8H9ClNO5PS,14.7,0.0147
Dichlofenthion,C10H13Cl2O3PS,24.5,0.0245
Dichlofluanid,C9H11Cl2FN2O2S2,1.3,0.0013
Dichlone,C10H4Cl2O2,8,0.008
Dichloro(2-Chlorovinyl)arsine (trans),C2H2AsCl3,500,0.5
Dichloroacetic Acid,C2H2Cl2O2,1000000,1000
Dichlorobenzene,C18H12Cl6,80,0.08
Dichlorodifluoromethane,CCl2F2,280,0.28
Dichloroethanes,C4H8Cl4,5100,5.1
Dichlorofluoromethane,CHCl2F,18800,18.8
Dichloromethane,CH2Cl2,13000,13
(dichloromethyl)benzene,C7H6Cl2,250,0.25
Dichloropropane,C9H18Cl6,2700,2.7
Dichloropropene,C12H16Cl8,2700,2.7
Dichlorprop,C9H8Cl2O3,350,0.35
Dichlorvos,C4H7Cl2O4P,8000,8
Diclobutrazol Isomers,C15H19Cl2N3O,9,0.009
Diclofenac,C14H11Cl2NO2,2.37,0.00237
Diclofop,C15H12Cl2O4,453,0.453
Diclofop-Methyl,C16H14Cl2O4,80,0.08
Diclomezine,C11H8Cl2N2O,74,0.074
Dicofol,C14H9Cl5O,80,0.08
Dicrotophos,C8H16NO5P,1000000,1000
Dicryl,C10H9Cl2NO,8.5,0.0085
Dicyanodiamidine Sulfate,C4H14N8O6S,50000,50
Dicyclohexyl Phthalate,C20H26O4,4,0.004
Dicyclomine Hydrochloride,C19H36ClNO2,250000,250
Didecyldimethylammonium Chloride,C22H48ClN,650,0.65
Didecyl Phthalate,C28H46O4,22000,22
"Di-D-Fructofuranose 1,2':2,1'-Dianhydride",C12H20O10,320000,320
Didodecylphthalate,C32H54O4,14,0.014
Dieldrin,C12H8Cl6O,19.5,0.0195
Dienestrol,C18H18O2,3,0.003
Dienochlor,C10Cl10,250,0.25
Diepoxybutane,C4H6O2,1000000,1000
Diethanolamine,C4H11NO2,1000000,1000
Diethoxymethane,C5H12O2,70000,70
Diethyl 3-Methyl-5-Pyrazolyl Phosphate,C8H15N2O4P,1000,1
Diethylamine,C4H11N,1000000,1000
"Diethylamine, Hydrobromide",C4H12BrN,1000000,1000
"Diethylamine, Hydroiodide",C4H12IN,1000000,1000
Diethyl Azelate,C13H24O4,250,0.25
Diethylbenzene,C30H42,31.9,0.0319
Diethyl Carbonate,C5H10O3,18800,18.8
Diethyl Disulfide,C4H10S2,300,0.3
"Diethylene Diglycol, Dinitrate",C4H8N2O7,3900,3.9
Diethylene Glycol,C4H10O3,1000000,1000
Diethylene Glycol Dibenzoate,C18H18O5,38.3,0.0383
Diethylene Glycol Dibutyl Ether,C12H26O3,3000,3
Diethylene Glycol Monobutyl Ether Acetate,C10H20O4,31000,31
Diethylene Glycol Monoethyl Ether,C6H14O3,1000000,1000
Diethylene Glycol Monomethyl Ether,C5H12O3,1000000,1000
Diethylene Glycol Mono-n-Butyl Ether,C8H18O3,1000000,1000
Diethylenetriamine,C4H13N3,1000000,1000
Diethylenetriaminepentaacetic Acid,C14H23N3O10,4800,4.8
Diethyl Ether,C4H10O,60400,60.4
Diethyl Glutarate,C9H16O4,8810,8.81
Diethylhexanedioate,C10H18O4,4230,4.23
Diethyl Maleate,C8H12O4,14000,14
Diethyl Malonate,C7H12O4,23200,23.2
Diethyl Pentyl Phosphate,C9H21O4P,7500,7.5
Diethyl Phthalate,C12H14O4,1080,1.08
Diethyl Pimelate,C11H20O4,1970,1.97
Diethyl Sebacate,C14H26O4,80,0.08
Diethyl Suberate,C12H22O4,679,0.679
Diethyl Succinate,C8H14O4,19100,19.1
Diethyl Sulfate,C4H10O4S,7000,7
Diethylsulfide,C4H10S,3130,3.13
Diethyl Sulfone,C4H10O2S,135000,135
Difenacoum,C31H24O3,310,0.31
Difenoconazole,C19H17Cl2N3O3,15,0.015
Difenoxuron,C16H18N2O3,20,0.02
Difenzoquat Methyl Sulfate,C18H20N2O4S,817000,817
Difethialone,C31H23BrO2S,39,0.039
Diflubenzuron,C14H9ClF2N2O2,800,0.8
Diflufenican,C19H11F5N2O2,500,0.5
Diflufenzopyr,C15H12F2N4O3,63,0.063
Diflumetorim,C15H16ClF2N3O,33,0.033
Digallic Acid,C14H10O9,500,0.5
Diginatin,C41H64O15,1000,1
Digoxin,C41H64O14,64.8,0.0648
Dihexyl Phthalate,C20H30O4,500,0.5
Dihydroxy Acetone,C3H6O3,930000,930
Diiodosalicylic Acid,C7H4I2O3,166,0.166
Di-i-Propylnitrosoamine,C6H14N2O,13000,13
Di-i-Propyl Phthalate,C14H18O4,332,0.332
Diisobutylamine,C8H19N,2200,2.2
Di-Isobutylphthalate,C16H22O4,6.2,0.0062
Diisobutyl Sodium Sulfosuccinate,C12H21NaO7S,760000,760
Diisodecyl Adipate,C26H50O4,440000,440
Diisodecyl Phthalate,C28H46O4,28,0.028
Diisoheptyl Phthalate,C22H34O4,170,0.17
Diisononyl Hexahydrophthlate,C26H48O4,200,0.2
Diisononyl Phthalate,C26H42O4,20,0.02
Diisooctyl Phthalate,C24H38O4,900,0.9
Diisopentyl Ether,C10H22O,200,0.2
Diisopropanolamine,C6H15NO2,860000,860
Diisopropylamine,C6H15N,110000,110
Diisopropylbenzene,C36H54,720,0.72
Di-Isopropyl Ether,C6H14O,8800,8.8
Diisopropylnaphthalene,C16H20,11,0.011
Dikegulac-Sodium,C12H17NaO7,590000,590
Dimalone,C11H14O4,13200,13.2
Dimefox,C4H12FN2OP,1000000,1000
Dimefuron,C15H19ClN4O3,16,0.016
Dimelin,C15H20N2O4S,3430,3.43
Dimenhydrinate,C24H28ClN5O3,3000,3
Dimepiperate,C15H21NOS,20,0.02
Dimetan,C11H17NO3,30000,30
Dimethachlor,C13H18ClNO2,2300,2.3
Dimethamrtryne,C11H21N5S,50,0.05
Dimethemamid-p,C12H18ClNO2S,1450,1.45
Dimethenamid,C12H18ClNO2S,1200,1.2
Dimethindene,C20H24N2,239,0.239
Dimethipin,C6H10O4S2,4600,4.6
Dimethirimol,C11H19N3O,1200,1.2
Dimethoate,C5H12NO3PS2,23300,23.3
Dimethomorph,C21H22ClNO4,49.2,0.0492
Dimethoxon,C5H12NO4PS,1000000,1000
Dimethoxymethane,C3H8O2,244000,244
Dimethylamine,C2H7N,1630000,1630
Dimethyl Diselenide,C2H6Se2,100,0.1
Dimethyldisulfide,C2H6S2,3000,3
Dimethyl Ether,C2H6O,46000,46
Dimethyl Glyoxime,C4H8N2O2,600,0.6
Dimethylguanidine,C3H9N3,1620,1.62
Dimethyl Hexahydroterephthalate,C10H16O4,12000,12
Dimethyl Isophthalate,C10H10O4,290,0.29
Dimethylmalonic Acid,C5H8O4,90000,90
Dimethylol Urea,C3H8N2O3,40,0.04
Dimethyl Phthalate,C10H10O4,4000,4
Dimethyl Selenide,C2H6Se,24400,24.4
Dimethylsilanediol,C2H8O2Si,1000000,1000
Dimethyl Succinate,C6H10O4,25000,25
Dimethylsulfate,C2H6O4S,28000,28
Dimethylsulfide,C2H6S,22000,22
Dimethyl Sulfoxide,C2H6OS,1000000,1000
Dimethylterephthalate,C10H10O4,19,0.019
Dimethyl Tetrachloroterephthalate,C10H6Cl4O4,50,0.05
Dimethyltin Dichloride,C2H6Cl2Sn,20000,20
"Dimethylurea, Sym",C3H8N2O,765000,765
Diminazene Aceturate,C14H15N7,66700,66.7
Dimorpholamine,C20H38N4O4,500000,500
Di-n-Amyl Phthalate,C18H26O4,80,0.08
Di-n-Butyl Ether,C8H18O,300,0.3
Di-n-Butyl Phosphate,C8H19O4P,17200,17.2
Di-n-Butyl Tin Diacetate,C12H24O4Sn,6,0.006
Dinicotinic Acid,C7H5NO4,1000,1
Dinitramine,C11H13F3N4O4,1.1,0.0011
Dinitrobenzenes,C18H12N6O12,500,0.5
Dinitrophenol,C30H20N10O25,5.6,0.0056
Dinitrosopentamethylenetetramine,C5H10N6O2,5700,5.7
Dinitrotoluene,C21H18N6O12,270,0.27
Dinocap,C18H24N2O6,4,0.004
Dinonyl Phthalate,C26H42O4,13000,13
Dinoseb,C10H12N2O5,52,0.052
Dinoseb Acetate,C12H14N2O6,2200,2.2
D-Inositol,C6H12O6,403000,403
Dinotefuran,C7H14N4O3,54300,54.3
Dinoterb,C10H12N2O5,4.5,0.0045
Di(n-Propyl) Ether,C6H14O,4900,4.9
Di(n-Propyl) Ketone,C7H14O,3190,3.19
Dioctyl Adipate,C22H42O4,78,0.078
Dioctyl Phthalate,C24H38O4,220,0.22
Dioctyltin Maleate,C20H36O4Sn,10,0.01
Diofenolan,C18H20O4,4.9,0.0049
Dionine,C19H23NO3,2610,2.61
Diosgenin,C27H42O3,200,0.2
Dioxacarb,C11H13NO4,6000,6
Dioxypyramidon,C13H17N3O3,76900,76.9
Di-(p-Aminophenyl)methane,C13H14N2,1000,1
Di(p-Aminophenyl)sulfone,C12H12N2O2S,380,0.38
Dipentaerythritol,C10H22O7,2800,2.8
Diperodon Hydrochloride,C22H28ClN3O4,10000,10
Diphacinone,C23H16O3,30,0.03
Diphenamid,C16H17NO,260,0.26
Diphenhydramine,C17H21NO,3060,3.06
Diphenoxylate,C30H32N2O2,800,0.8
Diphenylacetic Acid,C14H12O2,127,0.127
Diphenylacetonitrile,C14H11N,220,0.22
Diphenylamine,C12H11N,53,0.053
Diphenyl Ether,C12H10O,18,0.018
Diphenylmethyl Phosphate,C13H13O4P,2000,2
Diphenylnitrosamine,C12H10N2O,35,0.035
Diphenylolpropane,C15H16O2,300,0.3
Diphenyl Phthalate,C20H14O4,820,0.82
Diphenyltin Dichloride,C12H10Cl2Sn,50,0.05
Diphenylurea,C26H24N4O2,150,0.15
"Diphenylurea, Sym",C13H12N2O,150,0.15
Dipotassium Endothall,C8H8K2O5,1230000,1230
Dipotassium Monooctyl Ester,C8H17K2O4P,70,0.07
Dipropalin,C13H19N3O4,304,0.304
Dipropetryne,C11H21N5S,16,0.016
Dipropylamine,C6H15N,35100,35.1
Dipropylene Glycol,C6H14O3,1000000,1000
"Dipropylene Glycol, Dibenzoate",C20H22O5,15,0.015
Dipropylene Glycol Methyl Ether,C7H16O3,1000000,1000
Dipropyl Phthalate,C14H18O4,108,0.108
Diquat,C12H14N2,70,0.07
Diquat Dibromide,C12H12Br2N2,708000,708
Direct Blue 1,C34H24N6Na4O16S4,40000,40
Dis. A. 1,C17H19N5O6,38.9,0.0389
Dis. A. 10,C17H18Cl2N4O4,45.4,0.0454
Dis. A. 12,C16H17N5O5,71.8,0.0718
Dis. A. 13,C17H20N4O5,7.2,0.0072
Dis. A. 14,C16H17N5O6,2.25,0.00225
Dis. A. 2,C17H21N3O2,22.4,0.0224
Dis. A. 5,C16H18N4O2,119000,119
Dis. A. 6,C19H21N5O2,7020,7.02
Dis. A. 8,C17H18ClN5O6,21.2,0.0212
Dis. A. 9,C18H22N4O5,1.68,0.00168
Di-Sec-Butanolamine,C8H19NO2,1000000,1000
"D-Isoleucine, N-Acetyl-",C8H15NO3,41500,41.5
Disperse Blue 79,C23H25BrN6O10,5200,5.2
Disperse Blue Polyether,C14H9BrN2O4,5900000,5900
Disperse Brightener,C18H10N2O2S,9540,9.54
Disperse Orange 25,C17H17N5O2,40000,40
Disperse Red 1,C16H18N4O3,16,0.016
Disperse Red 11,C15H12N2O3,48.2,0.0482
Disperse Red 5,C17H19ClN4O4,10.2,0.0102
Disperse Red 9,C15H11NO2,11.9,0.0119
Disperse Violet 1,C14H10N2O2,33,0.033
Disperse Yellow 54,C18H11NO3,2890,2.89
Disulfiram,C10H20N2S4,4.09,0.00409
Disulfoton,C8H19O2PS3,16.3,0.0163
Disulfoton Sulfone,C8H19O4PS3,883,0.883
Disulfoton Sulfoxide,C8H19O3PS3,4000,4
Ditalimfos (laptran),C12H14NO4PS,133,0.133
"Di-Tert-Butylperoxy-3,3,5-Trimethylcyclohexane P",C17H34O4,60,0.06
Di-Tert-Butylsulfone,C8H18O2S,10800,10.8
Dithianone,C14H4N2O2S2,14,0.014
Dithiopyr,C15H16F5NO2S2,1.4,0.0014
Di(trimethylolpropane),C12H26O5,26000,26
Diundecyl Phthalate,C30H50O4,1.11,0.00111
Diuron,C9H10Cl2N2O,42,0.042
Divicine,C4H6N4O2,2850,2.85
Divinyl Ether,C4H6O,7690,7.69
Dka-24,C10H14Cl2N2O2,24200,24.2
"Dl-2,3-Dimethylsuccinic Acid",C6H10O4,30000,30
Dl-2-Octanol,C8H18O,1200,1.2
"Dl-Alanine, N-(2-Chlorophenyl)-",C9H10ClNO2,940,0.94
"Dl-Alanine, N-(2-Furanylcarbonyl)-, Ethyl Ester",C10H13NO4,16600,16.6
"Dl-Alanine, N-Benzoyl-",C10H11NO3,4000,4
"Dl-Alanine, N-Ethyl-",C5H11NO2,526000,526
"Dl-Alanine, N-[(ethylthio)thioxomethyl]-",C6H11NO2S2,11300,11.3
"Dl-Alanine, N-Formyl-",C4H7NO3,120000,120
Dl-Alloisoleucine,C6H13NO2,53500,53.5
"Dl-Alloisoleucine, N-Acetyl-",C8H15NO3,10900,10.9
Dl-Allothreonine,C4H9NO3,139000,139
"Dl-Allothreonine, O-Methyl-",C5H11NO3,407000,407
Dl-Aspartic Acid,C4H7NO4,8160,8.16
"Dl-Aspartic Acid, N-(aminocarbonyl)-",C5H8N2O5,3700,3.7
"Dl-Aspartic Acid, N,n-Bis(2-Cyanoethyl)-",C10H13N3O4,7000,7
Dl-Benzoin,C14H12O2,300,0.3
Dl-Cystine,C6H12N2O4S2,50,0.05
"D-Leucine, N-Acetyl-",C8H15NO3,8100,8.1
Dl-Homoserine,C4H9NO3,1000000,1000
D-Limonene,C10H16,13.8,0.0138
Dl-Isoleucine,C6H13NO2,21400,21.4
Dl-Isovaline,C5H11NO2,281000,281
"Dl-Leucine, N-(aminocarbonyl)-",C7H14N2O3,600,0.6
"Dl-Leucine, N-Formyl-",C7H13NO3,29500,29.5
"Dl-Lysine, N2-Benzoyl-",C13H18N2O3,1300,1.3
Dl-Mandelic Acid,C8H8O3,173000,173
Dl-Methionine,C5H11NO2S,32700,32.7
"Dl-Methionine, N-(2-Cyanoethyl)-",C8H14N2O2S,11000,11
"Dl-Methionine, N-Acetyl-",C7H13NO3S,91200,91.2
"Dl-Methionine, N,n-Bis(2-Cyanoethyl)-",C11H17N3O2S,12000,12
Dl-Norleucine,C6H13NO2,11800,11.8
"Dl-Norleucine, N-Acetyl-",C8H15NO3,36000,36
"Dl-Norleucine, N-(aminocarbonyl)-",C7H14N2O3,1200,1.2
Dl-Norvaline,C5H11NO2,83900,83.9
Dl-Phenylalanine,C9H11NO2,14200,14.2