Compound Name,Formula,Water Solubility (mg/L),Water Solubility (g/L)
"1-Naphthalenepropanoic Acid, .beta.-Amino-, (?)",C13H13NO2,5530,5.53
1-Naphthalenemethanol,C11H10O,2850,2.85
"1-Naphthalenecarboxylic Acid, 8-Nitro-",C11H7NO4,386,0.386
"1-Naphthalenecarboxylic Acid, 3,4-Dihydro-",C11H10O2,280,0.28
"1-Naphthalenecarboxylic Acid, 2-Hydroxy-",C11H8O3,140,0.14
"1-Naphthalenecarboxylic Acid, 2-Chloro-",C11H7ClO2,1000,1
"1-Naphthalenecarboxamide, N-Hydroxy-N-Phenyl-",C17H13NO2,30,0.03
"1-Naphthalenebutanoic Acid, .gamma.-Oxo-",C14H12O3,75,0.075
1-Naphthaleneacetamide,C12H11NO,39,0.039
"1-Naphthalenamine, N-Phenyl-",C16H13N,60,0.06
"1-Naphthalenamine, N-Ethyl-",C12H13N,110,0.11
1-Monobutyrin,C7H14O4,7500,7.5
1-Methyluracil,C5H6N2O2,20000,20
1-Methylphenanthrene,C15H12,26.9,0.0269
1-Methylnaphthalene,C11H10,25.8,0.0258
1-Methylfluorene,C14H12,1.09,0.00109
1-Methylcyclohexene,C7H12,52,0.052
1-Methylcyclohexane,C7H14,14,0.014
1-Methylbenz(a)anthracene,C19H14,550,0.55
1-Methylanthracene,C15H12,26.9,0.0269
"1-Methyl-Cyclohexane-1,2,3,4,5,6-Hexaol",C7H14O6,4300,4.3
1-Methyl-4-Methoxycarbonyl-2-Pyrrolidone,C7H11NO3,1000000,1000
1-Methyl-4-Carboxy-2-Pyrrolidone,C6H9NO3,15900,15.9
1-Methyl-2-Isopropylbenzene,C10H14,23.3,0.0233
1-Methyl-2(h)-Quinolinone,C10H9NO,14300,14.3
1-Methyl Uric Acid,C6H6N4O3,5000,5
1-Methoxy-2-Propanol,C4H10O2,1000000,1000
1-Lauryl-4-Methoxycarbonyl-2-Pyrrolidone,C18H33NO3,13.1,0.0131
1-Lauryl-4-Carboxy-2-Pyrrolidone,C17H31NO3,178,0.178
1-Lauryl-2-Pyrrolidone,C16H31NO,5.42,0.00542
1-Isothiocyanonaphthalene,C11H7NS,4.63,0.00463
"1-Isobenzofurancarboxamide, 1,3-Dihydro-3-Oxo-",C9H7NO3,1300,1.3
1-Iodopropane,C3H7I,1070,1.07
1-Iodonaphthalene,C10H17I,7.44,0.00744
1-Iodoheptane,C7H15I,3.5,0.0035
1-Hydroxyanthraquinone,C14H8O3,8.5,0.0085
1-Hydroxy-Cyclohexanecarboxylic Acid,C7H12O3,67000,67
1-Hexyne,C6H10,360,0.36
1-Hexyn-3-Ol,C6H10O,38000,38
1-Hexyl-4-Methoxycarbonyl-2-Pyrrolidone,C12H21NO3,12900,12.9
1-Hexyl-4-Carboxy-2-Pyrrolidone,C11H19NO3,7460,7.46
1-Hexyl-2-Pyrrolidone,C10H19NO,13400,13.4
1-Hexyl Nitrate,C6H13NO3,110,0.11
1-Hexene,C6H12,50,0.05
1-Hexen-3-Ol,C6H12O,25200,25.2
"1-Hexanol, 3,3,4,4,5,5,6,6,6-Nonafluoro-",C6H5F9O,977,0.977
1-Hexanol,C6H14O,5900,5.9
"1-Hexanamine, N-Hexyl-",C12H27N,129,0.129
1-Hexadecanol,C16H34O,412,0.412
1-Heptyne,C7H12,94,0.094
1-Heptene,C7H14,18.2,0.0182
"1-Heptanol, 6-Methyl-",C8H18O,647,0.647
"1-Heptanol, 5-Methyl-, (.+-.)-",C8H18O,712,0.712
"1-Heptanol, 4-Methyl-, (+-)",C8H18O,685,0.685
"1-Heptanol, 3-Methyl-, (.+-.)-",C8H18O,806,0.806
"1-Heptanol, 2-Methyl-, (.+-.)-",C8H18O,721,0.721
1-Heptanol,C7H16O,1670,1.67
1-Heptanethiol,C7H16S,9.26,0.00926
1-Fluoronaphthalene,C10H7F,51.5,0.0515
"1-Fluoro-2,4-Dinitrobenzene",C6H3FN2O4,400,0.4
1-Ethylnaphthalene,C12H12,10.7,0.0107
1-Ethyl-2-Methylbenzene,C9H12,74.6,0.0746
1-Decene,C10H20,57,0.057
1-Decanol,C10H22O,37,0.037
"1-Cyclopentene-1-Carboxylic Acid, 2,3,3-Trimethy",C9H14O2,200,0.2
"1-Cyclohexene-1-Carboxylic Acid, 2-Methyl-",C8H12O2,730,0.73
1-Cyclohexene-1-Carboxylic Acid,C7H10O2,7000,7
"1-Cyclohexene-1,4-Dicarboxylic Acid",C8H10O4,259,0.259
1-Chloropropane,C3H7Cl,2720,2.72
1-Chloropentane,C5H11Cl,197,0.197
1-Chlorooctane,C8H17Cl,4.89,0.00489
1-Chloronaphthalene,C10H7Cl,17.4,0.0174
1-Chlorohexane,C6H13Cl,91,0.091
1-Chloroheptane,C7H15Cl,13.6,0.0136
1-Chlorodibenzo-p-Dioxin,C12H7ClO2,41.7,0.0417
1-Chlorobutane,C4H9Cl,1100,1.1
1-Chloro-3-Isothiocyanato-Benzene,C7H4ClNS,19,0.019
1-Chloro-3-Bromopropane,C3H6BrCl,2240,2.24
1-Chloro-2-Nitropropane,C3H6ClNO2,8000,8
1-Chloro-2-Methylpropene,C4H7Cl,1000,1
1-Chloro-2-Fluoroethane,C2H4ClF,24400,24.4
1-Chloro-2-Fluorobenzene,C6H4ClF,501,0.501
1-Chloro-2-Butene,C4H7Cl,1000,1
"1-Chloro-2,5-Pyrrolidinedione",C4H4ClNO2,14300,14.3
"1-Chloro-2,3-Epoxypropane",C3H5ClO,65900,65.9
1-Chloro-1-Nitropropane,C3H6ClNO2,8000,8
"1-Chloro-1,2,2,2-Tetrafluoroethane",C2HClF4,1500,1.5
"1-Chloro-1,1-Difluoroethane",C2H3ClF2,1400,1.4
1-Camphoronic Acid,C9H14O6,111000,111
1-Butyne,C4H6,2870,2.87
1-Butyl Theobromine,C11H16N4O2,5600,5.6
"1-Butene, 4-Isothiocyanato-",C5H7NS,460,0.46
1-Butene,C4H8,221,0.221
1-Buten-3-Yne,C4H4,1790,1.79
"1-Butanone, 4-[4-(4-Chlorophenyl)-4-Hydroxy-1-Pi",C21H24ClNO2,7,0.007
"1-Butanone, 4-(4-Hydroxy-4-Phenyl-1-Piperidinyl)",C21H25NO2,28,0.028
"1-Butanone, 1-(4-Fluorophenyl)-4-[4-Hydroxy-4-(4",C22H26FNO2,16,0.016
"1-Butanone, 1-(4-Fluorophenyl)-4-[4-(4-Fluorophe",C21H23F2NO2,24,0.024
"1-Butanone, 1-(4-Fluorophenyl)-4-(4-Hydroxy-4-Ph",C21H24FNO2,26,0.026
"1-Butanol, 3-Methyl-, Nitrate",C5H11NO3,440,0.44
"1-Butanol, 3-Methoxy-3-Methyl-",C6H14O2,100000,100
"1-Butanol, 3-Ethoxy-",C6H14O2,50000,50
"1-Butanol, 2-Ethyl-, Acetate",C8H16O2,6400,6.4
"1-Butanol, 2,3-Dimethyl-",C6H14O,43600,43.6
1-Butanol,C4H10O,63200,63.2
"1-Butanamine, N-Ethyl-",C6H15N,36700,36.7
1-Bromopropane,C3H7Br,2450,2.45
1-Bromopentane,C5H11Br,127,0.127
1-Bromooctane,C8H17Br,1.67,0.00167
1-Bromonaphthalene,C10H7Br,9.32,0.00932
1-Bromohexane,C6H13Br,25.7,0.0257
1-Bromoheptane,C7H15Br,6.64,0.00664
1-Bromobutane,C4H9Br,869,0.869
1-Bromo-3-Methylbutane,C5H11Br,196,0.196
1-Bromo-2-Fluorobenzene,C6H4BrF,353,0.353
1-Bromo-2-Ethylbenzene,C8H9Br,39.6,0.0396
1-Bromo-2-Chloroethane,C2H4BrCl,6900,6.9
1-Aminoanthraquinone,C14H9NO2,30,0.03
1-Aminoacridine,C13H10N2,11.7,0.0117
1-Amino-4-Hydroxyanthraquinone,C14H9NO3,35.9,0.0359
1-Amino-2-Propanol,C3H9NO,1000000,1000
1-Amino-2-Naphthalenesulfonic Acid,C10H9NO3S,1540,1.54
"1-Amino-2-Methyl-9,10-Anthracenedione",C15H11NO2,33.2,0.0332
1-Amino-2-Butanol,C4H11NO,1000000,1000
1-Acetyl-2-Thiourea,C3H6N2OS,12800,12.8
1-<hydroxyimino-(seqtrans)>-1-Phenyl-Acetone,C9H9NO2,700,0.7
"1-(hydroxymethyl)-5,5-Dimethylhydantoin",C6H10N2O3,1000000,1000
(2-Bromoethyl)benzene,C8H9Br,39.1,0.0391
"2h-Pyran-6-Carboxylic Acid, 3,4-Dihydro-2,3,4-Tr",C12H8N2O5,25000,25
"2h-Pyran-5-Carboxylic Acid, 2-Oxo-, Methyl Ester",C7H6O4,120,0.12
"2h-Pyran-5-Carboxylic Acid, 2-Oxo-, Ethyl Ester",C8H8O4,16900,16.9
"2h-Pyran-3-Carboxylic Acid, 2-Oxo-6-Phenyl-, Eth",C14H12O4,450,0.45
"2h-Pyran-2,6-Dicarboxylic Acid, 3,4-Dihydro-3,4-",C7H4O7,8400,8.4
"2h-Pyran-2,5-Dicarboxylic Acid, Tetrahydro-2,6,6",C10H16O5,14000,14
"2h-Pyran-2,4(3h)-Dione, 6-Methyl-",C6H6O3,9600,9.6
"2h-Pyran, Tetrahydro-2-Methoxy-6-Methyl-",C7H14O2,33300,33.3
"2h-Purine-2-Thione, 1,3-Dihydro-",C5H4N4S,400,0.4
"2h-Purin-2-One, 1,3-Dihydro-",C5H4N4O,2630,2.63
"2h-Purin-2-One, 1,3,6,7-Tetrahydro-1,3,7-Trimeth",C8H10N4OS,100,0.1
"2h-Naphtho[1,2-B]pyran-2-One, 4-Methyl-",C14H10O2,570,0.57
"2h-Imidazole-2-Thione, 1,3-Dihydro-4-(1,2,3,4-Te",C7H12N2O4S,66700,66.7
2h-Hexadecafluoro-2-Decenoic Acid,C10H2F16O2,64,0.064
"2h-Azepin-2-One, 1-Benzoylhexahydro-",C13H15NO2,1480,1.48
"2h-1-Benzopyran-4-Carboxylic Acid, 2-Oxo-, Ethyl",C12H10O4,600,0.6
"2h-1-Benzopyran-3-Carboxylic Acid, 2-Oxo-, Ethyl",C12H10O4,100,0.1
"2h-1-Benzopyran-3-Carboxylic Acid, 2-Oxo-",C10H6O4,1320,1.32
"2h-1-Benzopyran-3-Carboxamide, N,n-Diethyl-2-Oxo",C14H15NO3,7400,7.4
"2h-1-Benzopyran-3-Acetic Acid, 2-Oxo-",C11H8O4,58800,58.8
"2h-1-Benzopyran-2-One, 7-Methoxy-",C10H8O3,133,0.133
"2h-1-Benzopyran-2-One, 6-Nitro-",C9H5NO4,420,0.42
"2h-1-Benzopyran-2-One, 6-Hydroxy-4-Methyl-",C10H8O3,750,0.75
"2h-1-Benzopyran-2-One, 6-Amino-",C9H7NO2,2330,2.33
"2h-1-Benzopyran-2-One, 4-Methyl-",C10H8O2,621,0.621
"2h-1-Benzopyran-2-One, 4-Bromo-",C9H5BrO2,5000,5
"2h-1-Benzopyran-2-One, 3,4-Dihydro-",C9H8O2,3000,3
"2h-1,4-Benzoxazin-3(4h)-One, 4-Methyl-",C9H9NO2,1170,1.17
"2h-1,4-Benzoxazin-3(4h)-One",C8H7NO2,400,0.4
"2h-1,3-Oxazin-2-One, Tetrahydro-3-[(5-Nitrofurfu",C9H9N3O5,80,0.08
"2h-1,2,3-Triazole-4-Carboxylic Acid, 5-(2-Carbox",C16H11N3O4,2000,2
2c.4t-3-Bromo-Muconic Acid,C6H5BrO4,260,0.26
2-p-Sulfanilylanilinoethanol,C14H16N2O3S,740,0.74
2-Vinylpyridine,C7H7N,27500,27.5
2-Undecanol,C11H24O,197,0.197
2-Thiouracil,C4H4N2OS,709,0.709
"2-Thiophenesulfonamide, 5-[(4-Hydroxybutyl)thio]",C8H13NO3S3,9300,9.3
"2-Thiophenesulfonamide, 5-[(4-Hydroxybutyl)sulfo",C8H13NO5S3,9900,9.9
"2-Thiophenesulfonamide, 5-[(3-Hydroxypropyl)thio",C7H11NO3S3,9500,9.5
"2-Thiophenesulfonamide, 4-[(4-Methylphenyl)sulfo",C11H11NO4S3,30,0.03
"2-Thiophenesulfonamide, 4-[(4-Methoxyphenyl)sulf",C11H11NO5S3,20,0.02
"2-Thiophenesulfonamide, 4-[(4-Hydroxyphenyl)sulf",C10H9NO5S3,500,0.5
"2-Thiophenesulfonamide, 4-[(3-Hydroxyphenyl)sulf",C10H9NO5S3,610,0.61
"2-Thiophenesulfonamide, 4-(4-Methylbenzoyl)-",C12H11NO3S2,10,0.01
"2-Thiophenesulfonamide, 4-(4-Methoxybenzoyl)-",C12H11NO4S2,10,0.01
"2-Thiophenesulfonamide, 4-(4-Hydroxybenzoyl)-",C11H9NO4S2,390,0.39
"2-Thiophenepropanoic Acid, .alpha.-Amino-",C7H9NO2S,25000,25
"2-Thiophenecarboxylic Acid, Hydrazide",C5H6N2OS,25000,25
"2-Thiophenecarboxylic Acid, 5-Nitro-, Hydrazide",C5H5N3O3S,2000,2
"2-Thiazolidinone, 3-[(5-Nitrofurfurylidene)amino",C8H7N3O4S,33,0.033
"2-Thiazolecarboxylic Acid, Hydrazide",C4H5N3OS,30000,30
"2-Thiazolecarboxylic Acid, (1-Carboxyethylidene)",C7H7N3O3S,2500,2.5
"2-Thianthrenol, 5,5,10,10-Tetraoxide",C12H8O5S2,772000,772
2-Quinolinecarboxylic Acid,C10H7NO2,14000,14
"2-Pyrrolidinone, 5-Methyl-1-Phenyl-",C11H13NO,25000,25
"2-Pyrrolidinone, 1-Nitroso-",C4H6N2O2,129000,129
"2-Pyrrolidinecarboxamide, 5-Oxo-n-Phenyl-",C11H12N2O2,9600,9.6
2-Pyrimidone,C4H4N2O,455000,455
"2-Pyrimidinecarboxamide, 4,6-Dimethyl-",C7H9N3O,200000,200
2-Pyridinemethaneamine,C6H8N2,1000000,1000
2-Pyridinecarboxamide,C6H6N2O,180000,180
2-Pyrazinecarboxamide,C5H5N3O,15000,15
"2-Pteridinol, 6,7-Diethyl-",C10H12N4O,1110,1.11
"2-Pteridinamine, N,n-Dimethyl-",C8H9N5,400000,400
2-Pteridinamine,C6H5N5,741,0.741
2-Propylpiperidine,C8H17N,18000,18
"2-Propenoic Acid, 7-Bromo-5-Chloro-8-Quinolinyl",C12H7BrClNO2,6,0.006
"2-Propenoic Acid, 3-[2-(acetyloxy)phenyl]-, (e)-",C11H10O4,144,0.144
"2-Propenoic Acid, 3-Phenyl-, (e)-",C9H8O2,546,0.546
"2-Propenoic Acid, 3-Bromo-2,3-Diiodo-",C3HBrI2O2,20700,20.7
"2-Propenoic Acid, 3-(4-Methoxyphenyl)-, 2-Ethoxy",C14H18O4,500,0.5
"2-Propenoic Acid, 3-(2-Furanyl)-",C7H6O3,2000,2
"2-Propenoic Acid, 3-(2-Ethoxyphenyl)-, (z)-",C11H12O3,576,0.576
"2-Propenoic Acid, 3-(2-Ethoxyphenyl)-, (e)-",C11H12O3,91,0.091
"2-Propenoic Acid, 3-(1h-Imidazol-4-Yl)-",C6H6N2O2,1500,1.5
"2-Propenoic Acid, 3,3-Dibromo-",C3H2Br2O2,33600,33.6
"2-Propenoic Acid, 2-Methyl-, 7,7,9(or 7,9,9)-Tri",C23H38N2O8,30,0.03
"2-Propenoic Acid, 2-Methyl-, (1-Methylethylidene",C29H36O8,3,0.003
"2-Propenoic Acid, 2,3-Dibromo-3-Iodo-",C3HBr2IO2,34000,34
"2-Propenoic Acid, 2,3,3-Tribromo-",C3HBr3O2,13500,13.5
"2-Propenamide, 3-(2-Nitrophenyl)-",C9H8N2O3,10000,10
"2-Propenamide, 2-Chloro-",C3H4ClNO,65000,65
"2-Propanone, 1-(4,5-Dihydro-2-Thiazolyl)-",C6H9NOS,10000,10
"2-Propanone, 1-(2-Piperidinyl)-",C8H15NO,50000,50
"2-Propanone, 1,1-Diethoxy-",C7H14O3,91000,91
"2-Propanone, 1,1,1,3,3-Pentabromo-",C3HBr5O,10,0.01
"2-Propanol, 1-Chloro-2-Methyl-",C4H9ClO,157000,157
"2-Propanol, 1-Chloro-, Phosphate (3:1)",C9H18Cl3O4P,1080,1.08
"2-Propanol, 1-(2-Butoxy-1-Methylethoxy)-",C10H22O3,45000,45
"2-Propanol, 1-(1-Methyl-2-Propoxyethoxy)-",C9H20O3,150000,150
"2-Propanol, 1,3-Dipropoxy-",C9H20O3,80000,80
"2-Propanol, 1,3-Diiodo-",C3H6I2O,12500,12.5
"2-Propanol, 1,3-Dichloro-2-Methyl-",C4H8Cl2O,94000,94
"2-Propanol, 1,3-Dichloro-, Carbamate",C4H7Cl2NO2,7500,7.5
"2-Propanol, 1,3-Bis(3-Methylbutoxy)-",C13H28O3,10000,10
"2-Propanol, 1,1-Dinitro-",C3H6N2O5,180000,180
"2-Piperidinecarboxamide, N-(2,6-Dimethylphenyl)-",C15H22N2O,7000,7
"2-Phenylphenol, Sodium Salt",C12H9NaO,1000000,1000
2-Phenylphenol,C12H10O,700,0.7
2-Phenylethanol,C8H10O,22200,22.2
2-Phenylcinchoninic Acid,C16H11NO2,160,0.16
"2-Phenyl-4,5-Dichloro-3-Pyridazinone",C10H6Cl2N2O,100,0.1
2-Phenoxyethanol,C8H10O2,26700,26.7
2-Phenethylisothiocyanate,C9H9NS,110,0.11
2-Pentenoic Acid,C5H8O2,62900,62.9
2-Pentene,C5H10,203,0.203
2-Pentanone,C5H10O,43000,43
"2-Pentanol, Carbamate",C6H13NO2,7800,7.8
2-Pentanol,C5H12O,44600,44.6
"2-Pentanamine, 4-Methyl-",C6H15N,7.9,0.0079
"2-Oxetanone, 3-Ethyl-4-Methyl-, (3s-Trans)-",C6H10O2,24600,24.6
"2-Oxazolidinone, 3-[[3-(5-Nitro-2-Furyl)allylide",C10H9N3O5,9.6,0.0096
"2-Oxabicyclo[2.2.2]octan-6-One, 1,3,3-Trimethyl-",C10H16O2,20000,20
2-Octanone,C8H16O,899,0.899
2-Octanol,C8H18O,1120,1.12
2-Nonanone,C9H18O,371,0.371
2-Nonanol,C9H20O,259,0.259
2-Nitrotoluene,C7H7NO2,609,0.609
2-Nitroso-1-Naphthol,C10H7NO2,500,0.5
2-Nitroresorcinol,C6H5NO4,1310,1.31
2-Nitropropane,C3H7NO2,17000,17
2-Nitrophenol,C6H5NO3,2500,2.5
2-Nitronaphthalene,C10H7NO2,9.24,0.00924
2-Nitrofluorene,C13H9NO2,21.6,0.0216
2-Nitroethanol,C2H5NO3,1000000,1000
2-Nitrobenzyl Alcohol,C7H7NO3,5000,5
2-Nitrobenzoic Acid,C7H5NO4,7850,7.85
2-Nitroanisole,C7H7NO3,1690,1.69
2-Nitroaniline,C6H6N2O2,1470,1.47
2-Nitroacetanilide,C8H8N2O3,2220,2.22
2-Nitro-5-Chlorobenzoic Acid,C7H4ClNO4,9670,9.67
2-Nitro-1-Butanol,C4H9NO3,54000,54
2-Naphthylamine-7-Sulfonic Acid,C10H9NO3S,200,0.2
"2-Naphthylamine-6,8-Disulfonic Acid",C10H9NO6S2,92100,92.1
"2-Naphthylamine-5,7-Disulfonic Acid",C10H9NO6S2,229000,229
2-Naphthylamine,C10H9N,189,0.189
"2-Naphthol, 3-(2-Imidazolin-2-Yl)-",C13H12N2O,106,0.106
2-Naphthol,C10H8O,755,0.755
2-Naphthoic Acid,C11H8O2,47,0.047
"2-Naphthalenol, Hydrogen Phosphate",C20H15O4P,400,0.4
"2-Naphthalenol, 5,6,7,8-Tetrahydro-",C10H12O,1500,1.5
"2-Naphthalenesulfonic Acid, 6-Amino-",C10H9NO3S,120,0.12
"2-Naphthalenesulfonic Acid, 6-(methylamino)-",C11H11NO3S,4500,4.5
"2-Naphthalenesulfonic Acid, 5-Amino-1-Hydroxy",C10H9NO4S,1150,1.15
"2-Naphthalenesulfonic Acid, 4-Hydroxy-6-(phenyla",C16H13NO4S,3330,3.33
"2-Naphthalenesulfonic Acid, 4-Amino-",C10H9NO3S,1020,1.02
"2-Naphthalenesulfonic Acid, 1-[(2-Hydroxy-1-Naph",C20H14N2O4S,1400,1.4
"2-Naphthalenecarboxylic Acid, 1,4-Dihydro-",C11H10O2,52,0.052
"2-Naphthalenecarboxylic Acid, 1,2-Dihydro-",C11H10O2,580,0.58
"2-Naphthalenebutanoic Acid, .gamma.-Oxo-",C14H12O3,32,0.032
"2-Naphthalenamine, 1-(phenylazo)-",C16H13N3,30,0.03
2-Methylthiobenzothiazole,C8H7NS2,125,0.125
2-Methyltetrahydrofuran,C5H10O,139000,139
2-Methylpyridine,C6H7N,1000000,1000
2-Methylpyrazine,C5H6N2,1000000,1000
2-Methylpropyl Propanoate,C7H14O2,1700,1.7
2-Methylpropane,C4H10,48.8,0.0488
2-Methylphenanthrene,C15H12,28,0.028
2-Methylpentane,C6H14,14,0.014
2-Methylpentaldehyde,C6H12O,4200,4.2
2-Methylnaphthalene,C11H10,24.6,0.0246
2-Methylhexane,C7H16,2.54,0.00254
2-Methylfuran,C5H6O,3000,3
2-Methylbenaimidazole,C8H8N2,1450,1.45
2-Methylaziridine,C3H7N,1000000,1000
2-Methylanthracene,C15H12,213,0.213
2-Methyl-6-Chlorophenol,C7H7ClO,24000,24
2-Methyl-5-(1-Methylethenyl)cyclohexanone,C10H16O,1020,1.02
2-Methyl-4-Chlorophenoxyacetic Acid,C9H9ClO3,630,0.63
2-Methyl-4-Chlorophenol,C7H7ClO,4000,4
2-Methyl-4-Bromoacetanilide,C9H10BrNO,4000,4
2-Methyl-3-Pentanone,C6H12O,15500,15.5
2-Methyl-3-Pentanol,C6H14O,20100,20.1
2-Methyl-3-Hexyne,C7H12,173,0.173
2-Methyl-3-Hexanol,C7H16O,5700,5.7
2-Methyl-3-Butyn-2-Ol,C5H8O,1000000,1000
2-Methyl-2-Pentanol,C6H14O,32400,32.4
"2-Methyl-2-Nitropropane-1,3-Diol",C4H9NO4,800000,800
2-Methyl-2-Nitro-1-Propanol,C4H9NO3,3500000,3500
2-Methyl-2-Hexanol,C7H16O,9700,9.7
2-Methyl-2-Heptanol,C8H18O,2500,2.5
2-Methyl-2-Butene,C5H10,193,0.193
2-Methyl-2-Butanol,C5H12O,110000,110
"2-Methyl-2,4-Pentanediol",C6H14O2,1000000,1000
2-Methyl-1-Pentene,C6H12,78,0.078
2-Methyl-1-Pentanol,C6H14O,6000,6
2-Methyl-1-Butene,C5H10,130,0.13
2-Methyl-1-Butanol,C5H12O,29700,29.7
"2-Methyl-1,4-Naphthoquinone",C11H8O2,160,0.16
"2-Methyl-1,3-Butadiene",C5H8,642,0.642
2-Methoxyphenol,C7H8O2,18700,18.7
2-Methoxyethylether,C6H14O3,1000000,1000
2-Methoxyethyl Acetate,C5H10O3,1000000,1000
2-Methoxyethanol,C3H8O2,1000000,1000
2-Methoxyaniline,C7H9NO,12600,12.6
2-Methoxy-5-Nitroaniline,C7H8N2O3,115,0.115
2-Methoxy-4-(1-Propenyl)phenol,C10H12O2,810,0.81
2-Mercaptobenzothiazole,C7H5NS2,120,0.12
2-Isopropyl-6-Methylphenol,C10H14O,8000,8
2-Isopropoxyethanol,C5H12O2,1000000,1000
"2-Isoindolineacetic Acid, .alpha.-Ethyl-.alpha.-",C13H13NO4,3000,3
2-Iodopropane,C3H7I,1400,1.4
2-Iodobutane,C4H9I,210,0.21
2-Iodobenzoic Acid,C7H5IO2,461,0.461
"2-Imidazolidinone, 4-Hydroperoxy-5-Hydroxy-4-Met",C4H8N2O4,37500,37.5
2-Hydroxypyridine,C5H5NO,1000000,1000
2-Hydroxypropyl Acrylate,C6H10O3,1000000,1000
"2-Hydroxypropanoic Acid, Methyl Ester",C4H8O3,1000000,1000
2-Hydroxymethylfuran,C5H6O2,1000000,1000
"2-Hydroxymethyl-2-Nitro-1,3-Propanediol",C4H9NO5,2200000,2200
2-Hydroxyethyl Methacrylate,C6H10O3,100000,100
2-Hydroxyethyl Acrylate,C5H8O3,1000000,1000
2-Hydroxyanthraquinone,C14H8O3,1.1,0.0011
2-Hydroxy-But-3-Enoic Acid Ethyl Ester,C6H10O3,300000,300
2-Hydrazino-Hexanoic Acid,C6H14N2O2,1000,1
2-Hexenedioic Acid,C6H8O4,9000,9
2-Hexene-4-Ol,C6H12O,38100,38.1
2-Hexanone,C6H12O,17200,17.2
2-Hexanol,C6H14O,13700,13.7
2-Heptyne,C7H12,164,0.164
"2-Heptenedioic Acid, 4-Oxo-",C7H8O5,3000,3
2-Heptene (trans),C7H14,14.5,0.0145
2-Heptene,C7H14,15,0.015
2-Heptanone,C7H14O,4300,4.3
"2-Heptanol, 4-Methyl-",C8H18O,1730,1.73
2-Heptanol,C7H16O,3270,3.27
"2-Heptadecyl-4,5-Dihydro-2-Imidazoline-1-Ethanol",C22H46N2O,100,0.1
"2-Furoic Acid, 3,4,5-Trichloro-",C5HCl3O3,1300,1.3
"2-Furansulfonamide, 4-[(4-Methylphenyl)sulfonyl]",C11H11NO5S2,50,0.05
"2-Furansulfonamide, 4-[(4-Methoxyphenyl)sulfonyl",C11H11NO6S2,300,0.3
"2-Furansulfonamide, 4-[(4-Hydroxyphenyl)sulfonyl",C10H9NO6S2,1200,1.2
"2-Furansulfonamide, 4-(4-Methoxybenzoyl)-",C12H11NO5S,20,0.02
"2-Furanol, 5-Ethyltetrahydro-",C6H12O2,100000,100
"2-Furanmethanol, Tetrahydro-, Benzoate",C12H14O3,980,0.98
"2-Furanmethanol, Formate",C6H6O3,13100,13.1
"2-Furancarboxylic Acid, 5-Nitro-, [3-(5-Nitro-2-",C12H8N4O7,14.2,0.0142
"2-Furancarboxylic Acid, 5-Methyl-",C6H6O3,18900,18.9
"2-Furancarboxylic Acid, 5-Chloro-",C5H3ClO3,2800,2.8
"2-Furancarboxylic Acid, 5-Bromo-, [3-(5-Nitro-2-",C12H8BrN3O5,3,0.003
"2-Furancarboxylic Acid, 5-Bromo-",C5H3BrO3,2200,2.2
"2-Furancarboxylic Acid, 4-Bromo-",C5H3BrO3,12500,12.5
"2-Furancarboxylic Acid, 3,4-Dichloro-",C5H2Cl2O3,2700,2.7
"2-Furancarboxylic Acid, 3,4-Dibromo-",C5H2Br2O3,2200,2.2
2-Furancarboxylic Acid,C5H4O3,37100,37.1
"2-Furancarboxamide, N-[(2-Furanylcarbonyl)oxy]-",C10H7NO5,2360,2.36
"2-Furancarboxamide, N-Hydroxy-n-Phenyl-",C11H9NO3,130,0.13
"2-Furancarboxaldehyde, 5-Bromo-",C5H3BrO2,5000,5
"2-Furancarboxaldehyde, 5-(methoxymethyl)-",C7H8O3,44400,44.4
"2-Furanacrolein, 5-Nitro-, 4-Phenylsemicarbazone",C14H12N4O4,24.5,0.0245
"2-Furanacrolein, 5-Nitro-, 2-(2-Hydroxyethyl)sem",C10H12N4O5,208,0.208
"2-Furanacrolein, 5-Nitro-, (2,4-Dinitrophenyl)hy",C13H13N5O7,3,0.003
"2-Furanacetic Acid, Tetrahydro-2-Methyl-5-Oxo-,",C9H14O4,33300,33.3
"2-Furaldehyde, 5-Nitro-, 2-Pentylsemicarbazone",C11H16N4O4,340,0.34
"2-Furaldehyde, 5-Nitro-, 2-(3-Hydroxypropyl)semi",C9H12N4O5,650,0.65
"2-Furaldehyde, 5-Nitro-, 2-(2-Hydroxyethyl)semio",C9H10N4O6,238,0.238
2-Fluoroethanol,C2H5FO,1000000,1000
2-Fluorobenzoic Acid,C7H5FO2,7200,7.2
2-Ethylthiophene,C6H8S,292,0.292
2-Ethylpyridine,C7H9N,340000,340
2-Ethylnitrobenzene,C8H9NO2,240,0.24
2-Ethylnaphthalene,C12H12,8.01,0.00801
2-Ethylhexylamine,C8H19N,2500,2.5
2-Ethylhexyl Fumarate,C20H36O4,100,0.1
2-Ethylhexyl Diphenyl Phosphate,C20H27O4P,1.9,0.0019
2-Ethylhexyl Acrylate,C11H20O2,100,0.1
"2-Ethylhexyl 2,4-Dichlorophenoxyacetate",C16H22Cl2O3,860,0.86
2-Ethylhexanal,C8H16O,400,0.4
2-Ethylbutyric Acid,C6H12O2,18000,18
2-Ethylanthracene,C16H14,268,0.268
2-Ethylacetanilide,C10H13NO,4190,4.19
2-Ethyl-2-Phenylgluterimide,C13H15NO2,999,0.999
"2-Ethyl-2-Nitro-1,3-Propanediol",C5H11NO4,1000000,1000
2-Ethyl-2-Methyl-Succinic Acid,C7H12O4,154000,154
2-Ethyl-2-Hexenal,C8H14O,586,0.586
2-Ethyl-1-Hexanol,C8H18O,880,0.88
2-Ethyl-1-Butanol,C6H14O,4000,4
"2-Ethyl-1,3-Hexandiol",C8H18O2,42000,42
2-Ethoxyethanol,C4H10O2,1000000,1000
2-Dimethylaminoethanol,C4H11NO,1000000,1000
2-Diethylamino-4-Ethylamino-6-Methoxy-s-Triazi*,C10H19N5O,226,0.226
2-Dibutylaminoethanol,C10H23NO,4000,4
2-Dibenzofuransulfonic Acid,C12H8O4S,85000,85
2-Decanone,C10H20O,76.8,0.0768
"2-Cyclopenta[c]pyran-4-Carboxylic Acid, 1-(?-d-g",C17H26O10,100000,100
"2-Cyclohexyl-4,6-Dinitrophenol",C12H14N2O5,15,0.015
"2-Cyclohexene-1,2-Dicarboxylic Acid, 1-Methyl-",C9H12O4,2000,2
"2-Cyclohexene-1,2-Dicarboxylic Acid",C8H10O4,8770,8.77