Compound Name,Formula,Water Solubility (mg/L),Water Solubility (g/L)
"Beta-Alanine, N-[[(4-Nitrophenyl)amino]carbonyl]",C10H11N3O5,500,0.5
".beta.-Alanine, N-(aminocarbonyl)-",C4H8N2O3,20900,20.9
".beta.-Alanine, N-(carboxymethyl)-",C5H9NO4,26000,26
".beta.-Alanine, N-Methyl-",C4H9NO2,91000,91
".beta.,.beta.-Carotene",C40H56,60,0.06
".beta.-d-Glucopyranose, 4-o-.beta.-d-Galactopyra",C12H22O11,52200,52.2
"Beta-d-Glucopyranose, Pentaacetate",C16H22O11,900,0.9
"Beta-d-Glucopyranoside, Phenyl",C12H16O6,29800,29.8
Beta-Eucaine,C15H21NO2,2960,2.96
Beta-Hexachlorocyclohexane,C6H6Cl6,24,0.024
Betaine,C5H11NO2,611000,611
Beta-Ionone,C13H20O,169,0.169
Betamethasone,C22H29FO5,66.5,0.0665
Betamethasone-17-Valerate,C27H37FO6,9.29,0.00929
Beta-Peltatin,C22H22O8,13,0.013
Beta-Phenylpropionic Acid,C9H10O2,5900,5.9
Beta-Propiolactone,C3H4O2,370000,370
Beta-Terpineol,C10H18O,2200,2.2
Bethanechol Chloride,C7H17ClN2O2,625000,625
Bgh,C18H18N2O6,41,0.041
Bibenzyl,C14H14,4.3,0.0043
"Bicyclo[2.2.1]heptan-2-Ol, 3-Amino-1,7,7-Trimeth",C10H19NO,10000,10
"Bicyclo[2.2.1]heptan-2-One, 7-(hydroxymethyl)-1,",C9H14O2,80000,80
Bifenox,C14H9Cl2NO5,39.8,0.0398
Bifenthrin,C23H22ClF3O2,1000,1
Bilanafos,C11H22N3O6P,1000000,1000
Bilirubin,C33H36N4O6,9,0.009
Binapacryl,C15H18N2O6,1,0.001
Biocozamycin,C12H18N2O7,192000,192
Biopterin,C9H11N5O3,700,0.7
Bioresmethrin,C22H26O3,30,0.03
Biotin,C10H16N2O3S,220,0.22
Biphenyl,C12H10,7.48,0.00748
"Biphenyl, 2,2',3,4,4',6'-Hexachloro-",C12H4Cl6,2080,2.08
"Biphenyl, 3,4'-Dichloro-",C12H8Cl2,888,0.888
"Biphenyl, Dichloro-",C13H10Cl2,550,0.55
Bis(2-Chloroethoxy)methane,C5H10Cl2O2,7800,7.8
Bis(2-Chloroethyl) Ether,C4H8Cl2O,17200,17.2
Bis(2-Chloroethyl)ethylamine,C6H13Cl2N,160,0.16
Bis(2-(dimethylamino)ethyl) Ether,C8H20N2O,1000000,1000
Bis (2-Ethoxy Ethyl) Ether,C8H18O3,1000000,1000
Bis(2-Ethylhexyl) Isophthalate,C24H38O4,110,0.11
Bis(2-Ethylhexyl)phosphate,C16H35O4P,182,0.182
Bis(2-Ethylhexyl)phthalate,C24H38O4,27,0.027
Bis(2-Ethylhexyl) Sodium Sulfosuccinate,C20H37NaO7S,71000,71
Bis(2-Ethylhexyl) Terephthalate,C24H38O4,40000,40
Bis (2-Hydroxy-3tert-Butyl-5-Methylphenyl) Metha,C23H32O2,200,0.2
"Bis(8-Quinolinolato-(n1,o8))copper",C18H12CuN2O2,700,0.7
Bis(chloromethyl) Ether,C2H4Cl2O,22000,22
Bis(ethylxanthogen),C6H10O2S4,2.76,0.00276
Bis(methoxyethyl)phthalate,C14H18O6,8500,8.5
Bispyribac-Sodium,C19H17N4NaO8,68700,68.7
Bis-sulfide,C6H12N2O4S2,1500,1.5
Bis(trichloromethyl)sulfone,C2Cl6O2S,67,0.067
Bis(tri-n-Butyltin) Oxide,C24H54OSn2,19.5,0.0195
Bitertanol,C20H23N3O2,5,0.005
Bitertanol Stereoisomer A,C20H23N3O2,2.7,0.0027
Black Pn,C28H21N5O11S3,30000,30
Boric Acid,H3BO3,50000,50
"Boric Acid, Sodium Salt",BNaO2,200000,200
Boron Fluoride,BF3,3320000,3320
Boscalid,C18H12Cl2N2O,4.6,0.0046
Brilliant Blue Fcf,C37H36N2Na2O9S3,30000,30
Brodifacoum,C31H23BrO3,3800,3.8
Bromacil,C9H13BrN2O2,815,0.815
Bromadiolone,C30H23BrO4,12.5,0.0125
Bromcresol Green,C21H14Br4O5S,6000,6
Bromcresol Purple,C21H16Br2O5S,20000,20
Bromine,Br2,33600,33.6
Bromoacetamide,C2H4BrNO,160000,160
Bromoacetic Acid,C2H3BrO2,1750000,1750
Bromoacetonitrile,C2H2BrN,75000,75
Bromobenzene,C6H5Br,446,0.446
Bromobutide,C15H22BrNO,3.54,0.00354
Bromocyclohexane,C6H11Br,70.7,0.0707
Bromodichloromethane,CHBrCl2,3030,3.03
Bromodifluoromethane,CHBrF2,500000,500
Bromoethane,C2H5Br,9000,9
Bromofenoxim,C13H7Br2N3O6,10,0.01
Bromoform,CHBr3,3100,3.1
Bromophos,C8H8BrCl2O3PS,30,0.03
Bromophos Ethyl,C10H12BrCl2O3PS,44,0.044
Bromosuccinic Acid,C4H5BrO4,120000,120
Bromotrifluoromethane,CBrF3,320,0.32
Bromoxynil,C7H3Br2NO,130,0.13
Bromoxynil Octanoate,C15H17Br2NO2,800,0.8
Bromperidol,C21H23BrFNO2,90,0.09
Bromphenol Blue,C19H10Br4O5S,3000,3
Brompyrazone,C10H8BrN3O,200,0.2
Bromthymol Blue,C27H28Br2O5S,1000,1
Bromuconazole,C13H12BrCl2N3O,50,0.05
Brucine,C23H26N2O4,3200,3.2
"Bufa-3,20,22-Trienolide, 16-(acetyloxy)-5-(?-d-g",C32H42O12,5000,5
"Bufa-3,20,22-Trienolide, 5-(?-d-Glucopyranosylox",C30H40O10,3330,3.33
Bufencarb,C26H38N2O4,50,0.05
Buminafos,C18H38NO3P,170,0.17
Bupirimate,C13H24N4O3S,22,0.022
Bupivacaine,C18H28N2O,91.7,0.0917
Buprofezin,C16H23N3OS,90,0.09
Butabarbital Sodium,C10H15N2NaO3,333000,333
Butachlor,C17H26ClNO2,20,0.02
Butalbital,C11H16N2O3,1700,1.7
Butamifos,C13H21N2O4PS,6.19,0.00619
"Butanal, 3-Ethoxy-2-Oxo-",C6H10O3,91000,91
"Butanal, 3-Hydroxy-2-Methyl-",C5H10O2,33000,33
"Butanamide, 2-Bromo-2-Ethyl-",C6H12BrNO,17800,17.8
"Butanamide, 2-Chloro-2-Ethyl-",C6H12ClNO,14000,14
"Butanamide, 4-(benzoyloxy)-N,n-Dimethyl-",C13H17NO3,13900,13.9
"Butanamide, N-(aminocarbonyl)-2-Cyano-2-Ethyl-",C8H13N3O2,5000,5
"Butanamide, N-Methyl-N-Nitroso-",C5H10N2O2,3800,3.8
"Butanamide, N,n'-1,2-Ethanediylbis-",C10H20N2O2,47800,47.8
"Butanamide, N,n,2-Triethyl-",C10H21NO,14000,14
"Butane, 1,1',1''-[methylidynetris(sulfonyl)]tris",C13H28O6S3,400,0.4
"Butane-1,2,3,4-Tetracarboxylic Acid, Racemic",C8H10O8,118000,118
Butane-1-Thiosulfinic Acid S-Butyl Ester,C8H18OS2,1000,1
"Butane, 2,3-Dichloro-, (r*,r*)-(.+-.)-",C4H8Cl2,562,0.562
"Butane, 2-Chloro-2-Methyl-",C5H11Cl,329,0.329
"Butane, 2-Chloro-3-Methoxy-",C5H11ClO,1230,1.23
"Butanediamide, N,n,n',n'-Tetramethyl-",C8H16N2O2,549000,549
"Butanedinitrile, Ethyl-",C6H8N2,22000,22
Butanedioc Acid,C4H6O4,83200,83.2
"Butanedioic Acid, (1-Methylethenyl)-",C7H10O4,75600,75.6
"Butanedioic Acid, (1-Methylethyl)-",C7H12O4,62700,62.7
"Butanedioic Acid, (1-Phenylethylidene)-, (e)",C12H12O4,2070,2.07
"Butanedioic Acid, (1-Phenylethylidene)-, (z)",C12H12O4,212,0.212
"Butanedioic Acid, 2,2-Diethyl-",C8H14O4,27900,27.9
"Butanedioic Acid, 2,2-Dimethyl-",C6H10O4,70000,70
"Butanedioic Acid, 2,2-Diphenyl-",C16H14O4,1000,1
"Butanedioic Acid, 2,2'-Thiobis-",C8H10O8S,86000,86
"Butanedioic Acid, 2,3-Dibromo-, (r*,s*)-",C4H4Br2O4,20400,20.4
"Butanedioic Acid, 2,3-Diethyl-",C8H14O4,24000,24
"Butanedioic Acid, 2,3-Diethyl-, (r*,s*)-",C8H14O4,6100,6.1
"Butanedioic Acid, 2,3-Dihydroxy-",C4H6O6,246000,246
"Butanedioic Acid, 2,3-Dimethyl-, (r*,r*)-(.+-.)-",C6H10O4,30000,30
"Butanedioic Acid, 2,3-Dimethyl-, (r*,s*)-",C6H10O4,300000,300
"Butanedioic Acid, 2-Ethyl-3-Methyl-",C7H12O4,161000,161
"Butanedioic Acid, 2-Hydroxy-2-Phenyl-",C10H10O5,15700,15.7
"Butanedioic Acid, 2-Methyl-3-(1-Methylethyl)-",C8H14O4,6400,6.4
"Butanedioic Acid, 3-Ethyl-2,2-Dimethyl-",C8H14O4,37000,37
"Butanedioic Acid, Bromo-, (.+-.)-",C4H5BrO4,192000,192
"Butanedioic Acid, Chloro-, (r)-",C4H5ClO4,24400,24.4
"Butanedioic Acid, Chloro-, (s)-",C4H5ClO4,244000,244
"Butanedioic Acid, Dibutyl Ester",C12H22O4,230,0.23
"Butanedioic Acid, (diphenylmethylene)-, 1-Ethyl",C19H18O4,2000,2
"Butanedioic Acid, [(ethoxythioxomethyl)thio]-",C7H10O5S2,24100,24.1
"Butanedioic Acid, Hydroxy-, (.+-.)-",C4H6O5,1000000,1000
"Butanedioic Acid, Mercapto-",C4H6O4S,500000,500
"Butanedioic Acid, Methyl-, (.+-.)-",C5H8O4,343000,343
"Butanedioic Acid, Methylene-",C5H6O4,76800,76.8
"Butanedioic Acid, Methyl-, (r)-",C5H8O4,565000,565
"Butanedioic Acid, Mono[2-[(dichloroacetyl)amino]",C15H16Cl2N2O8,3500,3.5
"Butanedioic Acid, Propyl-, (.+-.)-",C7H12O4,47300,47.3
"Butanedioic Acid, Tetraethyl-",C12H22O4,250,0.25
"Butanedioic Acid, Tetramethyl-",C8H14O4,4800,4.8
"Butanedioic Acid, Trimethyl-",C7H12O4,95700,95.7
"Butanenitrile, 2-Hydroxy-3-Methyl-, (r)-",C5H9NO,200000,200
Butanethiol,C4H10S,597,0.597
"Butanoic Acid, 1,2-Ethanediylbis(oxy-2,1-Ethaned",C14H26O6,8000,8
"Butanoic Acid, 1,2-Ethanediyl Ester",C10H18O4,500,0.5
"Butanoic Acid, 2,2,4-Trichloro-",C4H5Cl3O2,50000,50
"Butanoic Acid, 2-[(2-Amino-1-Oxobutyl)amino]-, [",C8H16N2O3,9500,9.5
"Butanoic Acid, 2,2-Dibromo-",C4H6Br2O2,33000,33
"Butanoic Acid, 2,2'-Thiobis-, Meso",C8H14O4S,40300,40.3
"Butanoic Acid, 2,3-Dibromo-2-Methyl-",C5H6Br2O4,10500,10.5
"Butanoic Acid, 2-Amino-, (.+-.)-",C4H9NO2,200000,200
"Butanoic Acid, [2-(aminocarbonyl)phenoxy]methyl",C12H15NO4,2500,2.5
"Butanoic Acid, 2-[(aminoiminomethyl)amino]-",C5H11N3O2,20000,20
"Butanoic Acid, 2-Ethyl-2-Hydroxy-",C6H12O3,26000,26
"Butanoic Acid, 2-(ethylamino)-",C6H13NO2,50000,50
"Butanoic Acid, 2-Formyl-3-Oxo-, Ethyl Ester",C7H10O4,6000,6
"Butanoic Acid, 2-(formylamino)-",C5H9NO3,33600,33.6
"Butanoic Acid, 2-Hydroxy-1,3-Propanediyl Ester",C11H20O5,3500,3.5
"Butanoic Acid, 2-Methyl-",C5H10O2,45000,45
"Butanoic Acid, 3-Amino-",C4H9NO2,1000000,1000
"Butanoic Acid, 3-Amino-2-Hydroxy-",C4H9NO3,52800,52.8
"Butanoic Acid, 3-Methyl-, 4-Nitrophenyl Ester",C11H13NO4,9,0.009
"Butanoic Acid, 3-Oxo-, Cyclohexyl Ester",C10H16O3,230,0.23
"Butanoic Acid, 4,4,4-Trifluoro-3-Oxo-, Ethyl Est",C6H7F3O3,8000,8
"Butanoic Acid, 4,4'-Diselenobis-",C8H14O4Se2,1880,1.88
"Butanoic Acid, 4-Amino-2,3-Dihydroxy-4-Oxo-",C4H7NO5,26500,26.5
"Butanoic Acid, 4-Amino-2,3-Dihydroxy-4-Oxo-, [r-",C4H7NO5,61000,61
"Butanoic Acid, 4-Amino-2-Hydroxy-4-Oxo-",C4H7NO4,40200,40.2
"Butanoic Acid, 4-Amino-2-Hydroxy-4-Oxo-, (r)-",C4H7NO4,752000,752
"Butanoic Acid, 4-Amino-2-Hydroxy-4-Oxo-, (s)-",C4H7NO4,75000,75
"Butanoic Acid, 4-(benzoylamino)-",C11H13NO3,13000,13
"Butanoic Acid, 4-(diethylamino)-4-Oxo-, Propyl E",C11H21NO3,52000,52
"Butanoic Acid, 4-Nitrophenyl Ester",C10H11NO4,24,0.024
"Butanoic Acid, 4-Phosphono-",C4H9O5P,533000,533
"Butanoic Acid, L-2-Aminobutanoyl-l-2-Aminobutano",C24H44N6O7,1100,1.1
Butenachlor,C17H24ClNO2,29,0.029
Buthidazole,C10H16N4O2S,3400,3.4
Buthiobate,C21H28N2S2,1,0.001
Butocarboxim,C7H14N2O2S,35000,35
Butoxycarboxim,C7H14N2O4S,209000,209
Butralin,C14H21N3O4,1,0.001
Butroxydim,C24H33NO4,6.9,0.0069
Buturon,C12H13ClN2O,30,0.03
Butyl Acrylate,C7H12O2,2000,2
Butylate,C11H23NOS,45,0.045
Butyl Benzoate,C11H14O2,59,0.059
Butyl Benzyl Phthalate,C19H20O4,2.69,0.00269
Butyl Cinnamate,C13H16O2,5000,5
Butyl Lactate,C7H14O3,40000,40
Butyl Malonic Acid,C7H12O4,438000,438
Butyl Nitrate,C4H9NO3,1120,1.12
Butyl-p-Aminobenzoate,C11H15NO2,335,0.335
Butyl Vinyl Ether,C6H12O,3000,3
Butyraldehyde,C4H8O,71000,71
Butyramide,C4H9NO,163000,163
Butyric Acid,C4H8O2,60000,60
"Butyric Acid, 2,2'-Dithiodi-",C8H14O4S2,26000,26
"Butyric Acid, 2,2'-Selenodi-, Meso-",C8H14O4Se,30400,30.4
"Butyric Acid, 2,2'-Thiobis[3-Methyl-, Meso-",C10H18O4S,4100,4.1
"Butyric Acid, 2-Formamido-3-Methoxy-, Dl-",C6H11NO4,39000,39
"Butyric Acid, 3,3'-Thiodi-, Meso-",C8H14O4S,500000,500
Butyronitrile,C4H7N,33000,33
"Butyrophenone, 4-[4-(p-Fluorophenyl)-4-Hydroxypi",C21H24FNO2,15,0.015
Cacodylic Acid,C2H7AsO2,2000000,2000
Cadmium Cyanide,C2CdN2,17100,17.1
Cadmium Succinate,C4H4CdO4,3670,3.67
Cadusafos,C10H23O2PS2,245,0.245
Cafaminol,C11H17N5O3,60000,60
Cafenstrole,C16H22N4O3S,2.5,0.0025
Calcium Acetylsalicylate,C18H14CaO8,166000,166
Calcium Chlorate,CaCl2O6,640000,640
Calcium Gluconate,C12H22CaO14,33300,33.3
Calcium Glycerophosphate,C3H7CaO6P,20000,20
Calcium Hypochlorite,HCaCl2O2,214000,214
Calcium Iodate,HCaIO3,200,0.2
Calcium Methionate,CH2CaO6S2,286000,286
Calcium Stearate,C36H70CaO4,2,0.002
Camphene,C10H16,4.6,0.0046
Camphor,C10H16O,1570,1.57
Camphoric Acid,C10H16O4,7600,7.6
Camphorquinone,C10H14O2,1700,1.7
Capecitabine,C15H22FN3O6,26,0.026
Caprolactam,C6H11NO,772000,772
Captafol,C10H9Cl4NO2S,1.4,0.0014
Captan,C9H8Cl3NO2S,5.1,0.0051
Carbamazepine,C15H12N2O,112,0.112
"Carbamic Acid, (1,3-Dioxo-1,3-Propanediyl)bis-,",C9H14N2O6,25000,25
"Carbamic Acid, 1,6-Hexanediylbis-, Bis(2-Hydroxy",C12H24N2O6,35000,35
"Carbamic Acid, 1h-Purin-6-Yl-, Ethyl Ester",C8H9N5O2,238,0.238
"Carbamic Acid, 2-Methylpropyl Ester",C5H11NO2,58600,58.6
"Carbamic Acid, (3,4-Diethoxyphenyl)-, 1-Methylet",C14H21NO4,26.6,0.0266
"Carbamic Acid, (3-Dimethylaminopropyl)thio-, S-e",C8H18N2OS,890000,890
"Carbamic Acid, Butyl-, 3-Iodo-2-Propynyl Ester",C8H12INO2,156,0.156
"Carbamic Acid, [(dibutylamino)thio]methyl-, 2,3-",C20H32N2O3S,30,0.03
"Carbamic Acid, Diethyl-, Ethyl Ester",C7H15NO2,12500,12.5
"Carbamic Acid, Diethyl-, Methyl Ester",C6H13NO2,67000,67
"Carbamic Acid, Diethylthio-, S-Ethyl Ester",C7H15NOS,3280,3.28
"Carbamic Acid, Ethylmethyl-, Ethyl Ester",C6H13NO2,50000,50
"Carbamic Acid, Hexamethylenedi-, Bis(4-Hydroxybu",C16H32N2O6,4100,4.1
"Carbamic Acid, Sulfamoyl-, 2-Ethylbutyl Ester",C7H16N2O4S,4000,4
"Carbamic Acid, Sulfamoyl-, 2-Ethylhexyl Ester",C9H20N2O4S,1000,1
"Carbamic Acid, Sulfamoyl-, Butyl Ester",C5H12N2O4S,18000,18
"Carbamimidothioic Acid, Trimethyl-, Methyl Ester",C5H12N2S,48000,48
"Carbamothioic Acid, S-[2-Oxo-2-(phenylamino)ethy",C9H10N2O2S,10000,10
Carbazole,C12H9N,1.8,0.0018
Carbendazim,C9H9N3O2,29,0.029
Carbetamide,C12H16N2O3,3500,3.5
Carbitol Acetate,C8H16O4,1000000,1000
Carbofuran,C12H15NO3,320,0.32
Carbon Dioxide,CO2,1480,1.48
Carbon Disulfide,CS2,2160,2.16
"Carbonic Acid, Dithallium (1+) Salt",CO3Tl2,52000,52
"Carbonic Acid, Dithio-, O-Benzyl Ester, S-Ester",C10H10O3S2,500,0.5
"Carbonic Acid, Trithio, Diester With 2-Mercaptop",C7H10O4S3,3000,3
Carbonothioic Dihydrazide,CH6N4S,5500,5.5
Carbon Tetrabromide,CBr4,240,0.24
Carbon Tetrachloride,CCl4,793,0.793
Carbonyl Sulfide,COS,1220,1.22
Carbophenothion-Methyl,C9H12ClO2PS3,1.6,0.0016
Carbophenthion,C11H16ClO2PS3,63,0.063
Carboxin,C12H13NO2S,147,0.147
Carbromal,C7H13BrN2O2,333,0.333
Carbutamide,C11H17N3O3S,535,0.535
Carfentrazone-Ethyl,C15H14Cl2F3N3O3,22,0.022
Carisoprodol,C12H24N2O4,300,0.3
Carmine,C22H20O13,1300,1.3
Carminic Acid,C22H20O13,1300,1.3
Cartap Hydrochloride,C7H16ClN3O2S2,200000,200
Carvone,C10H14O,1300,1.3
Catalposide,C22H26O12,5400,5.4
Catechol,C6H6O2,461000,461
Caulophylline,C12H16N2O,909000,909
Cdea,C6H12ClNO,85500,85.5
Cefaclor (panoral),C15H14ClN3O4S,10000,10
Celestin Blue,C17H18ClN3O4,20000,20
Cellobiose,C12H22O11,111000,111
Cephaeline Dihydrochloride,C28H36Cl2N2O4,265000,265
Cephradine,C16H19N3O4S,21300,21.3
Cetrimonium Bromide,C19H42BrN,100000,100
Cetrimonium Chloride,C19H42ClN,440,0.44
Cevadine,C32H49NO9,570,0.57
Cga 219417 (cyprodinil),C14H15N3,13,0.013
Cga 245704,C8H6N2OS2,7.7,0.0077
Chenodeoxycholic Acid,C24H40O4,89.9,0.0899
Chipcote,C2H3HgN,200000,200
Chlomethoxynil,C13H9Cl2NO4,30,0.03
Chloralose,C8H11Cl3O6,4440,4.44
"Chloramben, Methyl Ester",C8H7Cl2NO2,120,0.12
Chloramphenicol,C11H12Cl2N2O5,2500,2.5
Chloramphenicol Palmitate,C27H42Cl2N2O6,1050,1.05
Chloraniformethane,C9H7Cl5N2O,160,0.16
Chloranil,C6Cl4O2,250,0.25
Chloranilic Acid,C6H2Cl2O4,1900,1.9
Chlorantraniliprole,C18H14BrCl2N5O2,95,0.095
Chlorazine,C11H20ClN5,10,0.01
Chlorbromuron,C9H10BrClN2O2,35,0.035
Chlorbufam,C11H10ClNO2,540,0.54
Chlordane,C10H6Cl8,560,0.56
Chlordane (trans),C10H6Cl8,560,0.56
Chlordimeform,C10H13ClN2,270,0.27
Chlorendic Acid,C9H4Cl6O4,3500,3.5
Chlorethoxyfos,C6H11Cl4O3PS,1,0.001
Chlorfenprop Methyl,C10H10Cl2O2,40,0.04
Chlorfenvinphos,C12H14Cl3O4P,124,0.124
Chlorflurecol Methyl,C15H11ClO3,18,0.018
Chlorhexidine,C22H30Cl2N10,800,0.8
Chloridazon,C10H8ClN3O,400,0.4
Chlorimuron-Ethyl,C15H15ClN4O6S,1200,1.2
Chlorine,Cl2,6300,6.3
Chlormephos,C5H12ClO2PS2,60,0.06
Chlormequat Chloride,C5H13Cl2N,996000,996
Chlormerodrin,C5H11ClHgN2O2,11000,11
Chlormezanone,C11H12ClNO3S,2500,2.5
Chlornitrofen,C12H6Cl3NO3,76.4,0.0764
Chloroacetamide,C2H4ClNO,90000,90
Chloroacetic Acid,C2H3ClO2,858000,858
Chloroacetone,C3H5ClO,90000,90
Chloroacetonitrile,C2H2ClN,100000,100
Chlorobenzene,C6H5Cl,498,0.498
Chlorobenzilate,C16H14Cl2O3,13,0.013
Chlorobromomethane,CH2BrCl,16700,16.7
Chlorocyclohexane,C6H11Cl,212,0.212
Chlorodifluoromethane,CHClF2,2770,2.77
Chloroethane,C2H5Cl,6710,6.71
Chlorofluoromethane,CH2ClF,10400,10.4
Chloroform,CHCl3,7950,7.95
Chlorogenic Acid,C16H18O9,40000,40
Chlorohydroquinone,C6H5ClO2,923000,923
Chloromethiuron,C10H13ClN2S,50,0.05
Chloropentafluoroethane,C2ClF5,58,0.058
Chlorophacinone,C23H15ClO3,13,0.013
Chlorophenol,C18H15Cl3O3,28500,28.5
Chloroprocaine Hydrochloride,C13H20Cl2N2O2,45400,45.4
Chloroquine Diphosphate,C18H32ClN3O8P2,250000,250
Chlorosuccinic Acid,C4H5ClO4,182000,182
Chlorothalonil,C8Cl4N2,81,0.081
Chlorothen,C14H18ClN3S,2010,2.01
Chlorothiazide,C7H6ClN3O4S2,266,0.266
Chlorothymol,C10H13ClO,1000,1
Chlorotoluene,C21H21Cl3,20,0.02
Chlorotrifluoromethane,CClF3,90,0.09
Chlorotrinitrobenzene,C18H6Cl3N9O18,178,0.178
Chlorotrinitromethane,CClN3O6,2200,2.2
Chloroxuron,C15H15ClN2O2,3.7,0.0037
Chlorphenesin,C9H11ClO3,10000,10
Chlorpheniramine,C16H19ClN2,5500,5.5
Chlorpheniramine Maleate [usan:jan],C20H23ClN2O4,160000,160
Chlorphenoxamide,C17H16Cl2N2O5,3,0.003
Chlorphonium Chloride,C19H32Cl3P,960000,960
Chlorphoxim,C12H14ClN2O3PS,1.7,0.0017
Chlorpromazine,C17H19ClN2S,2.55,0.00255
Chlorpropamide,C10H13ClN2O3S,258,0.258
Chlorpropham,C10H12ClNO2,89,0.089
Chlorpyrifos,C9H11Cl3NO3PS,1.12,0.00112
Chlorpyrifos Methyl,C7H7Cl3NO3PS,4,0.004
Chlorsulfuron,C12H12ClN5O4S,31000,31
Chlorthalidone,C14H11ClN2O4S,120,0.12
Chlorthiamid,C7H5Cl2NS,950,0.95
Chlortoluron,C10H13ClN2O,70,0.07
Chlozolinate,C13H11Cl2NO5,32,0.032
Cholanthrene,C20H14,3500,3.5
Cholesterol,C27H46O,950,0.95
Cholic Acid,C24H40O5,175,0.175
Choral Hydrate,C2H3Cl3O2,793000,793
Chrysarobin,C15H12O3,210,0.21
Chrysene,C18H12,2000,2
C.i. 11115,C16H17ClN4O3,120,0.12
C.i. 14010,C13H10N2O6S,10000,10
C.i. 16230,C16H10N2Na2O7S2,80000,80
C.i. 26520,C19H14N4O6S,40000,40
C.i. 29160,C35H27N7O7S,40000,40
C.i. 42600,C31H42ClN3,9000,9
C.i. Acid Black 24,C36H25N5O6S2,20000,20
C.i. Acid Blue 1,C27H31N2NaO6S2,30000,30
C.i. Acid Orange 7 (free Acid) (7ci),C16H12N2O4S,174000,174
C.i. Acid Red 14,C20H12N2Na2O7S2,30000,30
C.i. Basic Green 1,C27H34N2O4S,40000,40
C.i. Basic Orange 2,C12H13ClN4,20,0.02
C.i..disperse Black 1,C16H14N4,790,0.79
C.i. Disperse Black 3,C14H16N4,6.12,0.00612
C.i. Disperse Blue 19,C20H14N2O2,19200,19.2
C.i. Disperse Blue 23,C18H18N2O4,55.4,0.0554
C.i. Disperse Blue 26,C16H14N2O4,203,0.203
C.i. Disperse Blue 3,C17H16N2O3,355,0.355
C.i. Disperse Dye,C18H19N5O3,671,0.671
C.i. Disperse Orange 1,C18H14N4O2,9550,9.55
C.i. Disperse Orange 13,C22H16N4O,34.5,0.0345
C.i. Disperse Organge 5,C15H14Cl2N4O3,15.9,0.0159
C.i. Disperse Red 17,C17H20N4O4,75.7,0.0757
C.i. Disperse Red 19,C16H18N4O4,3.87,0.00387
C.i. Disperse Red 60,C20H13NO4,64000,64
C.i. Disperse Red 7,C16H17ClN4O4,40.1,0.0401
C.i. Disperse Violet 4,C15H12N2O2,58,0.058
C.i. Disperse Yellow 23,C18H14N4O,604000,604
C.i. Disperse Yellow 42,C18H15N3O4S,19.9,0.0199
Ci Fluorescent Brightener 260,C40H38N12Na2O8S2,5,0.005
C.i. Food Red 11,C20H18N4O9S2,30000,30
Cimetidine,C10H16N6S,9380,9.38
"C.i. Mordant Violet 39, Trisodium Salt (8ci)",C22H11Na3O9,30000,30
Cinchomeronic Acid,C7H5NO4,2340,2.34
Cinchonidine,C19H22N2O,200,0.2
Cinchonine,C19H22N2O,240,0.24
Cinchonine Oxalate,C20H24N2O3,9600,9.6
Cinmetacin,C21H19NO4,1,0.001
Cinmethylin,C18H26O2,63,0.063
Cinnamic Acid,C9H8O2,570,0.57
"Cinnamic Acid, Ethyl Ester",C11H12O2,178,0.178
"Cinnamic Acid, P-Methoxy-",C10H10O3,712,0.712
Cinnarizine,C26H28N2,750,0.75
Cinosulfuron,C15H19N5O7S,120,0.12
Ciprofloxacin,C17H18FN3O3,30000,30
"Cis-1,2,2-Trimethyl-1,3-Cyclopentanedicarboxyl*",C10H16O4,3400,3.4
"Cis-1,2-Bis-(1-Methyl-3-Oxo-But-1-Enylamino)-Cyc",C16H26N2O2,5570,5.57
Cis-2-Butene,C4H8,659,0.659
Cis-2-Pentene,C5H10,203,0.203
C.i. Solvent Yellow 58,C16H19N3O2,31.4,0.0314
Cis-Platin,H6Cl2N2Pt,2530,2.53
Citraconic Acid,C5H6O4,783000,783
Citral,C10H16O,1340,1.34
Citric Acid,C6H8O7,383000,383
C.i. Yellow 3,C16H12N2Na2O7S2,190000,190
Clodinafop-Propargyl,C17H13ClFNO4,4,0.004
Cloethocarb,C11H14ClNO4,1300,1.3
Clofencet,C13H11ClN2O3,700000,700
Clofentezine,C14H8Cl2N4,1,0.001
Clofop Isobutyl Ester,C19H21ClO4,180,0.18
Clomazone,C12H14ClNO2,1100,1.1
Clomeprop,C16H15Cl2NO2,320,0.32
Clonazepam,C15H10ClN3O3,100,0.1
Cloprop,C9H9ClO3,1200,1.2
Cloquintocet-Mexyl,C18H22ClNO3,59,0.059
Cloransulam,C15H13ClFN5O5S,184,0.184
Clorexolone,C14H17ClN2O3S,16,0.016
Clothianidin,C6H8ClN5O2S,327,0.327
Cloxyfonac,C9H9ClO4,2000,2
Coatosil 1770,C14H28O4Si,860,0.86
Cocaine Hydrochloride,C17H22ClNO4,714000,714
Codeine,C18H21NO3,9000,9
Codeine Hydrochloride,C18H22ClNO3,33900,33.9
Codeine Methyl Bromide,C19H30BrNO3,260000,260
Codeine Phosphate,C18H24NO7P,310000,310
Codethyline Hydrochloride,C19H26ClNO3,2080,2.08
Colchiceine,C21H23NO6,6000,6
Colchicine,C22H25NO6,45000,45
Congo Red,C32H22N6Na2O6S2,116000,116
Copper Sulfate Pentahydrate,H10CuO9S,32000,32
Coronene,C24H12,14000,14
Corticosterone,C21H30O4,199,0.199
Cortisone,C21H28O5,280,0.28
Cortisone Acetate,C23H30O6,20,0.02
Coumachlor,C19H15ClO4,50,0.05
Coumaphos,C14H16ClO5PS,1.5,0.0015